  32  32   0   0
  0.2500000E+03  0.2000000E-08  0.2000000E-08  0.2000000E-08  0.1000000E-15
   300.000000000000     
  CAR 
 CH4                                     
      2.82289296    -27.08116561  301     -6.73394576      1.00000000
    -27.081  0.0000E+00  0.0000E+00  0.0000E+00  0.0000E+00
    -26.981  0.0000E+00  0.0000E+00  0.0000E+00  0.0000E+00
    -26.882  0.0000E+00  0.0000E+00  0.0000E+00  0.0000E+00
    -26.782  0.0000E+00  0.0000E+00  0.0000E+00  0.0000E+00
    -26.682  0.0000E+00  0.0000E+00  0.0000E+00  0.0000E+00
    -26.583  0.0000E+00  0.0000E+00  0.0000E+00  0.0000E+00
    -26.483  0.0000E+00  0.0000E+00  0.0000E+00  0.0000E+00
    -26.383  0.0000E+00  0.0000E+00  0.0000E+00  0.0000E+00
    -26.284  0.0000E+00  0.0000E+00  0.0000E+00  0.0000E+00
    -26.184  0.0000E+00  0.0000E+00  0.0000E+00  0.0000E+00
    -26.084  0.0000E+00  0.0000E+00  0.0000E+00  0.0000E+00
    -25.985  0.5329E-12  0.5329E-12  0.5312E-13  0.5312E-13
    -25.885  0.1986E-04  0.1986E-04  0.1979E-05  0.1979E-05
    -25.785  0.3651E+00  0.3651E+00  0.3639E-01  0.3639E-01
    -25.686  0.8136E+01  0.8136E+01  0.8474E+00  0.8474E+00
    -25.586  0.1531E+01  0.1531E+01  0.9999E+00  0.9999E+00
    -25.486  0.6058E-03  0.6057E-03  0.1000E+01  0.1000E+01
    -25.387  0.2563E-01  0.2563E-01  0.1003E+01  0.1003E+01
    -25.287  0.7243E+01  0.7242E+01  0.1724E+01  0.1724E+01
    -25.187  0.1916E+02  0.1916E+02  0.3634E+01  0.3634E+01
    -25.088  0.3667E+01  0.3666E+01  0.3999E+01  0.3999E+01
    -24.988  0.6348E-02  0.6348E-02  0.4000E+01  0.4000E+01
    -24.888  0.8067E-04  0.8067E-04  0.4000E+01  0.4000E+01
    -24.789  0.1136E+01  0.1136E+01  0.4113E+01  0.4113E+01
    -24.689  0.2395E+02  0.2395E+02  0.6500E+01  0.6500E+01
    -24.589  0.5008E+01  0.5008E+01  0.7000E+01  0.7000E+01
    -24.489  0.3201E-02  0.3201E-02  0.7000E+01  0.7000E+01
    -24.390  0.2214E-03  0.2215E-03  0.7000E+01  0.7000E+01
    -24.290  0.1080E+01  0.1080E+01  0.7108E+01  0.7108E+01
    -24.190  0.1778E+02  0.1778E+02  0.8880E+01  0.8880E+01
    -24.091  0.2300E+02  0.2300E+02  0.1117E+02  0.1117E+02
    -23.991  0.1262E+02  0.1262E+02  0.1243E+02  0.1243E+02
    -23.891  0.5672E+01  0.5672E+01  0.1300E+02  0.1300E+02
    -23.792  0.3916E-01  0.3915E-01  0.1300E+02  0.1300E+02
    -23.692  0.2137E-06  0.2137E-06  0.1300E+02  0.1300E+02
    -23.592  0.0000E+00  0.0000E+00  0.1300E+02  0.1300E+02
    -23.493  0.0000E+00  0.0000E+00  0.1300E+02  0.1300E+02
    -23.393  0.0000E+00  0.0000E+00  0.1300E+02  0.1300E+02
    -23.293  0.0000E+00  0.0000E+00  0.1300E+02  0.1300E+02
    -23.194  0.0000E+00  0.0000E+00  0.1300E+02  0.1300E+02
    -23.094  0.0000E+00  0.0000E+00  0.1300E+02  0.1300E+02
    -22.994  0.0000E+00  0.0000E+00  0.1300E+02  0.1300E+02
    -22.895  0.0000E+00  0.0000E+00  0.1300E+02  0.1300E+02
    -22.795  0.0000E+00  0.0000E+00  0.1300E+02  0.1300E+02
    -22.695  0.0000E+00  0.0000E+00  0.1300E+02  0.1300E+02
    -22.596  0.0000E+00  0.0000E+00  0.1300E+02  0.1300E+02
    -22.496  0.0000E+00  0.0000E+00  0.1300E+02  0.1300E+02
    -22.396  0.0000E+00  0.0000E+00  0.1300E+02  0.1300E+02
    -22.297  0.0000E+00  0.0000E+00  0.1300E+02  0.1300E+02
    -22.197  0.0000E+00  0.0000E+00  0.1300E+02  0.1300E+02
    -22.097  0.0000E+00  0.0000E+00  0.1300E+02  0.1300E+02
    -21.997  0.0000E+00  0.0000E+00  0.1300E+02  0.1300E+02
    -21.898  0.0000E+00  0.0000E+00  0.1300E+02  0.1300E+02
    -21.798  0.0000E+00  0.0000E+00  0.1300E+02  0.1300E+02
    -21.698  0.0000E+00  0.0000E+00  0.1300E+02  0.1300E+02
    -21.599  0.0000E+00  0.0000E+00  0.1300E+02  0.1300E+02
    -21.499  0.0000E+00  0.0000E+00  0.1300E+02  0.1300E+02
    -21.399  0.0000E+00  0.0000E+00  0.1300E+02  0.1300E+02
    -21.300  0.0000E+00  0.0000E+00  0.1300E+02  0.1300E+02
    -21.200  0.0000E+00  0.0000E+00  0.1300E+02  0.1300E+02
    -21.100  0.0000E+00  0.0000E+00  0.1300E+02  0.1300E+02
    -21.001  0.0000E+00  0.0000E+00  0.1300E+02  0.1300E+02
    -20.901  0.0000E+00  0.0000E+00  0.1300E+02  0.1300E+02
    -20.801  0.0000E+00  0.0000E+00  0.1300E+02  0.1300E+02
    -20.702  0.0000E+00  0.0000E+00  0.1300E+02  0.1300E+02
    -20.602  0.0000E+00  0.0000E+00  0.1300E+02  0.1300E+02
    -20.502  0.0000E+00  0.0000E+00  0.1300E+02  0.1300E+02
    -20.403  0.0000E+00  0.0000E+00  0.1300E+02  0.1300E+02
    -20.303  0.0000E+00  0.0000E+00  0.1300E+02  0.1300E+02
    -20.203  0.0000E+00  0.0000E+00  0.1300E+02  0.1300E+02
    -20.104  0.0000E+00  0.0000E+00  0.1300E+02  0.1300E+02
    -20.004  0.0000E+00  0.0000E+00  0.1300E+02  0.1300E+02
    -19.904  0.0000E+00  0.0000E+00  0.1300E+02  0.1300E+02
    -19.805  0.0000E+00  0.0000E+00  0.1300E+02  0.1300E+02
    -19.705  0.0000E+00  0.0000E+00  0.1300E+02  0.1300E+02
    -19.605  0.0000E+00  0.0000E+00  0.1300E+02  0.1300E+02
    -19.505  0.0000E+00  0.0000E+00  0.1300E+02  0.1300E+02
    -19.406  0.0000E+00  0.0000E+00  0.1300E+02  0.1300E+02
    -19.306  0.0000E+00  0.0000E+00  0.1300E+02  0.1300E+02
    -19.206  0.0000E+00  0.0000E+00  0.1300E+02  0.1300E+02
    -19.107  0.0000E+00  0.0000E+00  0.1300E+02  0.1300E+02
    -19.007  0.0000E+00  0.0000E+00  0.1300E+02  0.1300E+02
    -18.907  0.0000E+00  0.0000E+00  0.1300E+02  0.1300E+02
    -18.808  0.0000E+00  0.0000E+00  0.1300E+02  0.1300E+02
    -18.708  0.0000E+00  0.0000E+00  0.1300E+02  0.1300E+02
    -18.608  0.0000E+00  0.0000E+00  0.1300E+02  0.1300E+02
    -18.509  0.0000E+00  0.0000E+00  0.1300E+02  0.1300E+02
    -18.409  0.0000E+00  0.0000E+00  0.1300E+02  0.1300E+02
    -18.309  0.0000E+00  0.0000E+00  0.1300E+02  0.1300E+02
    -18.210  0.0000E+00  0.0000E+00  0.1300E+02  0.1300E+02
    -18.110  0.0000E+00  0.0000E+00  0.1300E+02  0.1300E+02
    -18.010  0.0000E+00  0.0000E+00  0.1300E+02  0.1300E+02
    -17.911  0.0000E+00  0.0000E+00  0.1300E+02  0.1300E+02
    -17.811  0.0000E+00  0.0000E+00  0.1300E+02  0.1300E+02
    -17.711  0.0000E+00  0.0000E+00  0.1300E+02  0.1300E+02
    -17.612  0.0000E+00  0.0000E+00  0.1300E+02  0.1300E+02
    -17.512  0.0000E+00  0.0000E+00  0.1300E+02  0.1300E+02
    -17.412  0.1344E-10  0.1344E-10  0.1300E+02  0.1300E+02
    -17.313  0.1500E-03  0.1500E-03  0.1300E+02  0.1300E+02
    -17.213  0.8801E+00  0.8801E+00  0.1309E+02  0.1309E+02
    -17.113  0.8434E+01  0.8434E+01  0.1393E+02  0.1393E+02
    -17.013  0.7174E+00  0.7174E+00  0.1400E+02  0.1400E+02
    -16.914  0.9209E-04  0.9209E-04  0.1400E+02  0.1400E+02
    -16.814  0.6108E-11  0.6108E-11  0.1400E+02  0.1400E+02
    -16.714  0.0000E+00  0.0000E+00  0.1400E+02  0.1400E+02
    -16.615  0.0000E+00  0.0000E+00  0.1400E+02  0.1400E+02
    -16.515  0.0000E+00  0.0000E+00  0.1400E+02  0.1400E+02
    -16.415  0.0000E+00  0.0000E+00  0.1400E+02  0.1400E+02
    -16.316  0.0000E+00  0.0000E+00  0.1400E+02  0.1400E+02
    -16.216  0.0000E+00  0.0000E+00  0.1400E+02  0.1400E+02
    -16.116  0.0000E+00  0.0000E+00  0.1400E+02  0.1400E+02
    -16.017  0.1559E-13  0.1559E-13  0.1400E+02  0.1400E+02
    -15.917  0.2013E-05  0.2013E-05  0.1400E+02  0.1400E+02
    -15.817  0.1230E+00  0.1230E+00  0.1401E+02  0.1401E+02
    -15.718  0.7058E+01  0.7058E+01  0.1472E+02  0.1472E+02
    -15.618  0.2848E+01  0.2848E+01  0.1500E+02  0.1500E+02
    -15.518  0.3508E-02  0.3509E-02  0.1500E+02  0.1500E+02
    -15.419  0.2672E-08  0.2672E-08  0.1500E+02  0.1500E+02
    -15.319  0.0000E+00  0.0000E+00  0.1500E+02  0.1500E+02
    -15.219  0.0000E+00  0.0000E+00  0.1500E+02  0.1500E+02
    -15.120  0.0000E+00  0.0000E+00  0.1500E+02  0.1500E+02
    -15.020  0.1062E-09  0.1062E-09  0.1500E+02  0.1500E+02
    -14.920  0.5277E-03  0.5277E-03  0.1500E+02  0.1500E+02
    -14.821  0.1455E+01  0.1455E+01  0.1515E+02  0.1515E+02
    -14.721  0.1071E+02  0.1071E+02  0.1621E+02  0.1621E+02
    -14.621  0.7917E+01  0.7917E+01  0.1700E+02  0.1700E+02
    -14.521  0.7619E+01  0.7619E+01  0.1776E+02  0.1776E+02
    -14.422  0.2394E+01  0.2394E+01  0.1800E+02  0.1800E+02
    -14.322  0.2088E-02  0.2088E-02  0.1800E+02  0.1800E+02
    -14.222  0.1088E-08  0.1088E-08  0.1800E+02  0.1800E+02
    -14.123  0.0000E+00  0.0000E+00  0.1800E+02  0.1800E+02
    -14.023  0.0000E+00  0.0000E+00  0.1800E+02  0.1800E+02
    -13.923  0.2952E-13  0.2952E-13  0.1800E+02  0.1800E+02
    -13.824  0.3204E-05  0.3204E-05  0.1800E+02  0.1800E+02
    -13.724  0.1810E+00  0.1809E+00  0.1802E+02  0.1802E+02
    -13.624  0.1257E+02  0.1257E+02  0.1927E+02  0.1927E+02
    -13.525  0.1249E+02  0.1249E+02  0.2052E+02  0.2052E+02
    -13.425  0.4831E+01  0.4831E+01  0.2100E+02  0.2100E+02
    -13.325  0.2086E-01  0.2086E-01  0.2100E+02  0.2100E+02
    -13.226  0.6551E-07  0.6551E-07  0.2100E+02  0.2100E+02
    -13.126  0.0000E+00  0.0000E+00  0.2100E+02  0.2100E+02
    -13.026  0.0000E+00  0.0000E+00  0.2100E+02  0.2100E+02
    -12.927  0.0000E+00  0.0000E+00  0.2100E+02  0.2100E+02
    -12.827  0.0000E+00  0.0000E+00  0.2100E+02  0.2100E+02
    -12.727  0.0000E+00  0.0000E+00  0.2100E+02  0.2100E+02
    -12.628  0.0000E+00  0.0000E+00  0.2100E+02  0.2100E+02
    -12.528  0.0000E+00  0.0000E+00  0.2100E+02  0.2100E+02
    -12.428  0.6931E-11  0.6929E-11  0.2100E+02  0.2100E+02
    -12.328  0.9967E-04  0.9966E-04  0.2100E+02  0.2100E+02
    -12.229  0.7631E+00  0.7631E+00  0.2108E+02  0.2108E+02
    -12.129  0.1436E+02  0.1436E+02  0.2251E+02  0.2251E+02
    -12.029  0.1443E+02  0.1443E+02  0.2395E+02  0.2395E+02
    -11.930  0.1066E+02  0.1066E+02  0.2501E+02  0.2501E+02
    -11.830  0.9905E+01  0.9904E+01  0.2600E+02  0.2600E+02
    -11.730  0.4721E-01  0.4721E-01  0.2600E+02  0.2600E+02
    -11.631  0.1677E-06  0.1677E-06  0.2600E+02  0.2600E+02
    -11.531  0.0000E+00  0.0000E+00  0.2600E+02  0.2600E+02
    -11.431  0.1543E-12  0.1543E-12  0.2600E+02  0.2600E+02
    -11.332  0.8979E-05  0.8978E-05  0.2600E+02  0.2600E+02
    -11.232  0.2529E+00  0.2529E+00  0.2603E+02  0.2603E+02
    -11.132  0.7832E+01  0.7832E+01  0.2681E+02  0.2681E+02
    -11.033  0.1946E+01  0.1946E+01  0.2700E+02  0.2700E+02
    -10.933  0.1159E-02  0.1159E-02  0.2700E+02  0.2700E+02
    -10.833  0.3983E-09  0.3983E-09  0.2700E+02  0.2700E+02
    -10.734  0.2348E-07  0.2348E-07  0.2700E+02  0.2700E+02
    -10.634  0.1192E-01  0.1192E-01  0.2700E+02  0.2700E+02
    -10.534  0.4308E+01  0.4308E+01  0.2743E+02  0.2743E+02
    -10.435  0.1339E+02  0.1339E+02  0.2877E+02  0.2877E+02
    -10.335  0.9164E+01  0.9164E+01  0.2968E+02  0.2968E+02
    -10.235  0.3212E+01  0.3213E+01  0.3000E+02  0.3000E+02
    -10.136  0.1776E-01  0.1776E-01  0.3000E+02  0.3000E+02
    -10.036  0.6492E+01  0.6492E+01  0.3065E+02  0.3065E+02
     -9.936  0.2206E+02  0.2206E+02  0.3285E+02  0.3285E+02
     -9.836  0.5200E+01  0.5200E+01  0.3337E+02  0.3337E+02
     -9.737  0.2279E+02  0.2279E+02  0.3564E+02  0.3564E+02
     -9.637  0.1713E+02  0.1713E+02  0.3734E+02  0.3734E+02
     -9.537  0.2538E+02  0.2538E+02  0.3987E+02  0.3987E+02
     -9.438  0.1633E+02  0.1633E+02  0.4150E+02  0.4150E+02
     -9.338  0.7957E+01  0.7957E+01  0.4230E+02  0.4230E+02
     -9.238  0.9858E+01  0.9858E+01  0.4328E+02  0.4328E+02
     -9.139  0.7124E+01  0.7124E+01  0.4399E+02  0.4399E+02
     -9.039  0.1182E+00  0.1182E+00  0.4400E+02  0.4400E+02
     -8.939  0.1859E-05  0.1859E-05  0.4400E+02  0.4400E+02
     -8.840  0.1337E-13  0.1337E-13  0.4400E+02  0.4400E+02
     -8.740  0.1716E-08  0.1716E-08  0.4400E+02  0.4400E+02
     -8.640  0.2719E-02  0.2720E-02  0.4400E+02  0.4400E+02
     -8.541  0.2618E+01  0.2618E+01  0.4426E+02  0.4426E+02
     -8.441  0.7373E+01  0.7373E+01  0.4500E+02  0.4500E+02
     -8.341  0.1516E+02  0.1516E+02  0.4651E+02  0.4651E+02
     -8.242  0.4023E+02  0.4023E+02  0.5052E+02  0.5052E+02
     -8.142  0.4839E+01  0.4839E+01  0.5100E+02  0.5100E+02
     -8.042  0.3171E+01  0.3171E+01  0.5132E+02  0.5132E+02
     -7.943  0.3060E+02  0.3060E+02  0.5437E+02  0.5437E+02
     -7.843  0.2257E+02  0.2257E+02  0.5662E+02  0.5662E+02
     -7.743  0.1575E+02  0.1575E+02  0.5819E+02  0.5819E+02
     -7.644  0.2893E+02  0.2893E+02  0.6107E+02  0.6107E+02
     -7.544  0.9303E+01  0.9303E+01  0.6200E+02  0.6200E+02
     -7.444  0.2966E-01  0.2966E-01  0.6200E+02  0.6200E+02
     -7.344  0.9785E-07  0.9785E-07  0.6200E+02  0.6200E+02
     -7.245  0.1543E-12  0.1543E-12  0.6200E+02  0.6200E+02
     -7.145  0.8980E-05  0.8980E-05  0.6200E+02  0.6200E+02
     -7.045  0.2529E+00  0.2529E+00  0.6203E+02  0.6203E+02
     -6.946  0.7832E+01  0.7832E+01  0.6281E+02  0.6281E+02
     -6.846  0.1946E+01  0.1946E+01  0.6300E+02  0.6300E+02
     -6.746  0.1159E-02  0.1159E-02  0.6300E+02  0.6300E+02
     -6.647  0.3982E-09  0.3982E-09  0.6300E+02  0.6300E+02
     -6.547  0.0000E+00  0.0000E+00  0.6300E+02  0.6300E+02
     -6.447  0.0000E+00  0.0000E+00  0.6300E+02  0.6300E+02
     -6.348  0.0000E+00  0.0000E+00  0.6300E+02  0.6300E+02
     -6.248  0.0000E+00  0.0000E+00  0.6300E+02  0.6300E+02
     -6.148  0.0000E+00  0.0000E+00  0.6300E+02  0.6300E+02
     -6.049  0.0000E+00  0.0000E+00  0.6300E+02  0.6300E+02
     -5.949  0.0000E+00  0.0000E+00  0.6300E+02  0.6300E+02
     -5.849  0.0000E+00  0.0000E+00  0.6300E+02  0.6300E+02
     -5.750  0.0000E+00  0.0000E+00  0.6300E+02  0.6300E+02
     -5.650  0.0000E+00  0.0000E+00  0.6300E+02  0.6300E+02
     -5.550  0.0000E+00  0.0000E+00  0.6300E+02  0.6300E+02
     -5.451  0.0000E+00  0.0000E+00  0.6300E+02  0.6300E+02
     -5.351  0.0000E+00  0.0000E+00  0.6300E+02  0.6300E+02
     -5.251  0.0000E+00  0.0000E+00  0.6300E+02  0.6300E+02
     -5.152  0.0000E+00  0.0000E+00  0.6300E+02  0.6300E+02
     -5.052  0.0000E+00  0.0000E+00  0.6300E+02  0.6300E+02
     -4.952  0.0000E+00  0.0000E+00  0.6300E+02  0.6300E+02
     -4.852  0.0000E+00  0.0000E+00  0.6300E+02  0.6300E+02
     -4.753  0.0000E+00  0.0000E+00  0.6300E+02  0.6300E+02
     -4.653  0.0000E+00  0.0000E+00  0.6300E+02  0.6300E+02
     -4.553  0.0000E+00  0.0000E+00  0.6300E+02  0.6300E+02
     -4.454  0.0000E+00  0.0000E+00  0.6300E+02  0.6300E+02
     -4.354  0.0000E+00  0.0000E+00  0.6300E+02  0.6300E+02
     -4.254  0.0000E+00  0.0000E+00  0.6300E+02  0.6300E+02
     -4.155  0.0000E+00  0.0000E+00  0.6300E+02  0.6300E+02
     -4.055  0.0000E+00  0.0000E+00  0.6300E+02  0.6300E+02
     -3.955  0.0000E+00  0.0000E+00  0.6300E+02  0.6300E+02
     -3.856  0.0000E+00  0.0000E+00  0.6300E+02  0.6300E+02
     -3.756  0.0000E+00  0.0000E+00  0.6300E+02  0.6300E+02
     -3.656  0.0000E+00  0.0000E+00  0.6300E+02  0.6300E+02
     -3.557  0.0000E+00  0.0000E+00  0.6300E+02  0.6300E+02
     -3.457  0.0000E+00  0.0000E+00  0.6300E+02  0.6300E+02
     -3.357  0.0000E+00  0.0000E+00  0.6300E+02  0.6300E+02
     -3.258  0.0000E+00  0.0000E+00  0.6300E+02  0.6300E+02
     -3.158  0.0000E+00  0.0000E+00  0.6300E+02  0.6300E+02
     -3.058  0.0000E+00  0.0000E+00  0.6300E+02  0.6300E+02
     -2.959  0.0000E+00  0.0000E+00  0.6300E+02  0.6300E+02
     -2.859  0.0000E+00  0.0000E+00  0.6300E+02  0.6300E+02
     -2.759  0.0000E+00  0.0000E+00  0.6300E+02  0.6300E+02
     -2.660  0.0000E+00  0.0000E+00  0.6300E+02  0.6300E+02
     -2.560  0.0000E+00  0.0000E+00  0.6300E+02  0.6300E+02
     -2.460  0.0000E+00  0.0000E+00  0.6300E+02  0.6300E+02
     -2.360  0.0000E+00  0.0000E+00  0.6300E+02  0.6300E+02
     -2.261  0.0000E+00  0.0000E+00  0.6300E+02  0.6300E+02
     -2.161  0.0000E+00  0.0000E+00  0.6300E+02  0.6300E+02
     -2.061  0.0000E+00  0.0000E+00  0.6300E+02  0.6300E+02
     -1.962  0.0000E+00  0.0000E+00  0.6300E+02  0.6300E+02
     -1.862  0.0000E+00  0.0000E+00  0.6300E+02  0.6300E+02
     -1.762  0.0000E+00  0.0000E+00  0.6300E+02  0.6300E+02
     -1.663  0.0000E+00  0.0000E+00  0.6300E+02  0.6300E+02
     -1.563  0.0000E+00  0.0000E+00  0.6300E+02  0.6300E+02
     -1.463  0.0000E+00  0.0000E+00  0.6300E+02  0.6300E+02
     -1.364  0.0000E+00  0.0000E+00  0.6300E+02  0.6300E+02
     -1.264  0.0000E+00  0.0000E+00  0.6300E+02  0.6300E+02
     -1.164  0.0000E+00  0.0000E+00  0.6300E+02  0.6300E+02
     -1.065  0.0000E+00  0.0000E+00  0.6300E+02  0.6300E+02
     -0.965  0.0000E+00  0.0000E+00  0.6300E+02  0.6300E+02
     -0.865  0.0000E+00  0.0000E+00  0.6300E+02  0.6300E+02
     -0.766  0.1312E-08  0.1323E-08  0.6300E+02  0.6300E+02
     -0.666  0.2329E-02  0.2339E-02  0.6300E+02  0.6300E+02
     -0.566  0.2484E+01  0.2488E+01  0.6325E+02  0.6325E+02
     -0.467  0.7382E+01  0.7379E+01  0.6398E+02  0.6398E+02
     -0.367  0.1630E+00  0.1625E+00  0.6400E+02  0.6400E+02
     -0.267  0.9433E-01  0.9497E-01  0.6401E+02  0.6401E+02
     -0.168  0.6736E+01  0.6744E+01  0.6468E+02  0.6468E+02
     -0.068  0.3217E+01  0.3208E+01  0.6500E+02  0.6500E+02
      0.032  0.5188E+01  0.5190E+01  0.6552E+02  0.6552E+02
      0.132  0.1939E+02  0.1939E+02  0.6745E+02  0.6745E+02
      0.231  0.2024E+02  0.2023E+02  0.6947E+02  0.6947E+02
      0.331  0.2325E+02  0.2328E+02  0.7179E+02  0.7179E+02
      0.431  0.2514E+02  0.2514E+02  0.7429E+02  0.7429E+02
      0.530  0.2575E+02  0.2567E+02  0.7686E+02  0.7685E+02
      0.630  0.2970E+02  0.2975E+02  0.7982E+02  0.7982E+02
      0.730  0.2691E+02  0.2688E+02  0.8250E+02  0.8250E+02
      0.829  0.2420E+02  0.2399E+02  0.8492E+02  0.8489E+02
      0.929  0.2966E+02  0.2991E+02  0.8787E+02  0.8787E+02
      1.029  0.1023E+02  0.6247E+01  0.8889E+02  0.8849E+02
      1.128  0.2749E+02  0.2980E+02  0.9163E+02  0.9146E+02
      1.228  0.2364E+02  0.2587E+02  0.9399E+02  0.9404E+02
      1.328  0.2809E+02  0.2354E+02  0.9679E+02  0.9639E+02
      1.427  0.2033E+02  0.1386E+02  0.9881E+02  0.9777E+02
      1.527  0.1870E+01  0.1196E+02  0.9900E+02  0.9896E+02
      1.627  0.8484E-03  0.3741E+00  0.9900E+02  0.9900E+02
      1.726  0.2342E-09  0.1987E-04  0.9900E+02  0.9900E+02
      1.826  0.0000E+00  0.5324E-12  0.9900E+02  0.9900E+02
      1.926  0.0000E+00  0.0000E+00  0.9900E+02  0.9900E+02
      2.025  0.0000E+00  0.0000E+00  0.9900E+02  0.9900E+02
      2.125  0.0000E+00  0.0000E+00  0.9900E+02  0.9900E+02
      2.225  0.0000E+00  0.0000E+00  0.9900E+02  0.9900E+02
      2.324  0.0000E+00  0.0000E+00  0.9900E+02  0.9900E+02
      2.424  0.0000E+00  0.0000E+00  0.9900E+02  0.9900E+02
      2.524  0.0000E+00  0.0000E+00  0.9900E+02  0.9900E+02
      2.624  0.0000E+00  0.0000E+00  0.9900E+02  0.9900E+02
      2.723  0.0000E+00  0.0000E+00  0.9900E+02  0.9900E+02
      2.823  0.0000E+00  0.0000E+00  0.9900E+02  0.9900E+02
      2.87360221    -27.09445273  301     -6.70368868      1.00000000
    -27.094  0.0000E+00  0.0000E+00  0.0000E+00  0.0000E+00
    -26.995  0.0000E+00  0.0000E+00  0.0000E+00  0.0000E+00
    -26.895  0.0000E+00  0.0000E+00  0.0000E+00  0.0000E+00
    -26.795  0.0000E+00  0.0000E+00  0.0000E+00  0.0000E+00
    -26.695  0.0000E+00  0.0000E+00  0.0000E+00  0.0000E+00
    -26.595  0.0000E+00  0.0000E+00  0.0000E+00  0.0000E+00
    -26.495  0.0000E+00  0.0000E+00  0.0000E+00  0.0000E+00
    -26.395  0.0000E+00  0.0000E+00  0.0000E+00  0.0000E+00
    -26.295  0.0000E+00  0.0000E+00  0.0000E+00  0.0000E+00
    -26.195  0.0000E+00  0.0000E+00  0.0000E+00  0.0000E+00
    -26.096  0.0000E+00  0.0000E+00  0.0000E+00  0.0000E+00
    -25.996  0.4712E-12  0.4712E-12  0.4707E-13  0.4707E-13
    -25.896  0.1889E-04  0.1889E-04  0.1887E-05  0.1887E-05
    -25.796  0.3613E+00  0.3613E+00  0.3609E-01  0.3609E-01
    -25.696  0.8127E+01  0.8127E+01  0.8479E+00  0.8479E+00
    -25.596  0.1522E+01  0.1522E+01  0.9999E+00  0.9999E+00
    -25.496  0.5858E-03  0.5858E-03  0.1000E+01  0.1000E+01
    -25.396  0.1083E+00  0.1083E+00  0.1011E+01  0.1011E+01
    -25.296  0.9783E+01  0.9783E+01  0.1988E+01  0.1988E+01
    -25.196  0.1432E+02  0.1432E+02  0.3419E+01  0.3419E+01
    -25.097  0.5777E+01  0.5777E+01  0.3996E+01  0.3996E+01
    -24.997  0.4013E-01  0.4013E-01  0.4000E+01  0.4000E+01
    -24.897  0.1840E-03  0.1840E-03  0.4000E+01  0.4000E+01
    -24.797  0.1595E+01  0.1595E+01  0.4159E+01  0.4159E+01
    -24.697  0.2422E+02  0.2422E+02  0.6578E+01  0.6578E+01
    -24.597  0.4219E+01  0.4219E+01  0.7000E+01  0.7000E+01
    -24.497  0.2567E-02  0.2567E-02  0.7000E+01  0.7000E+01
    -24.397  0.3978E-02  0.3979E-02  0.7000E+01  0.7000E+01
    -24.297  0.3204E+01  0.3204E+01  0.7320E+01  0.7320E+01
    -24.198  0.1749E+02  0.1749E+02  0.9068E+01  0.9068E+01
    -24.098  0.1763E+02  0.1763E+02  0.1083E+02  0.1083E+02
    -23.998  0.1323E+02  0.1323E+02  0.1215E+02  0.1215E+02
    -23.898  0.8212E+01  0.8212E+01  0.1297E+02  0.1297E+02
    -23.798  0.2829E+00  0.2828E+00  0.1300E+02  0.1300E+02
    -23.698  0.1110E-04  0.1110E-04  0.1300E+02  0.1300E+02
    -23.598  0.2045E-12  0.2045E-12  0.1300E+02  0.1300E+02
    -23.498  0.0000E+00  0.0000E+00  0.1300E+02  0.1300E+02
    -23.398  0.0000E+00  0.0000E+00  0.1300E+02  0.1300E+02
    -23.298  0.0000E+00  0.0000E+00  0.1300E+02  0.1300E+02
    -23.199  0.0000E+00  0.0000E+00  0.1300E+02  0.1300E+02
    -23.099  0.0000E+00  0.0000E+00  0.1300E+02  0.1300E+02
    -22.999  0.0000E+00  0.0000E+00  0.1300E+02  0.1300E+02
    -22.899  0.0000E+00  0.0000E+00  0.1300E+02  0.1300E+02
    -22.799  0.0000E+00  0.0000E+00  0.1300E+02  0.1300E+02
    -22.699  0.0000E+00  0.0000E+00  0.1300E+02  0.1300E+02
    -22.599  0.0000E+00  0.0000E+00  0.1300E+02  0.1300E+02
    -22.499  0.0000E+00  0.0000E+00  0.1300E+02  0.1300E+02
    -22.399  0.0000E+00  0.0000E+00  0.1300E+02  0.1300E+02
    -22.300  0.0000E+00  0.0000E+00  0.1300E+02  0.1300E+02
    -22.200  0.0000E+00  0.0000E+00  0.1300E+02  0.1300E+02
    -22.100  0.0000E+00  0.0000E+00  0.1300E+02  0.1300E+02
    -22.000  0.0000E+00  0.0000E+00  0.1300E+02  0.1300E+02
    -21.900  0.0000E+00  0.0000E+00  0.1300E+02  0.1300E+02
    -21.800  0.0000E+00  0.0000E+00  0.1300E+02  0.1300E+02
    -21.700  0.0000E+00  0.0000E+00  0.1300E+02  0.1300E+02
    -21.600  0.0000E+00  0.0000E+00  0.1300E+02  0.1300E+02
    -21.500  0.0000E+00  0.0000E+00  0.1300E+02  0.1300E+02
    -21.401  0.0000E+00  0.0000E+00  0.1300E+02  0.1300E+02
    -21.301  0.0000E+00  0.0000E+00  0.1300E+02  0.1300E+02
    -21.201  0.0000E+00  0.0000E+00  0.1300E+02  0.1300E+02
    -21.101  0.0000E+00  0.0000E+00  0.1300E+02  0.1300E+02
    -21.001  0.0000E+00  0.0000E+00  0.1300E+02  0.1300E+02
    -20.901  0.0000E+00  0.0000E+00  0.1300E+02  0.1300E+02
    -20.801  0.0000E+00  0.0000E+00  0.1300E+02  0.1300E+02
    -20.701  0.0000E+00  0.0000E+00  0.1300E+02  0.1300E+02
    -20.601  0.0000E+00  0.0000E+00  0.1300E+02  0.1300E+02
    -20.501  0.0000E+00  0.0000E+00  0.1300E+02  0.1300E+02
    -20.402  0.0000E+00  0.0000E+00  0.1300E+02  0.1300E+02
    -20.302  0.0000E+00  0.0000E+00  0.1300E+02  0.1300E+02
    -20.202  0.0000E+00  0.0000E+00  0.1300E+02  0.1300E+02
    -20.102  0.0000E+00  0.0000E+00  0.1300E+02  0.1300E+02
    -20.002  0.0000E+00  0.0000E+00  0.1300E+02  0.1300E+02
    -19.902  0.0000E+00  0.0000E+00  0.1300E+02  0.1300E+02
    -19.802  0.0000E+00  0.0000E+00  0.1300E+02  0.1300E+02
    -19.702  0.0000E+00  0.0000E+00  0.1300E+02  0.1300E+02
    -19.602  0.0000E+00  0.0000E+00  0.1300E+02  0.1300E+02
    -19.503  0.0000E+00  0.0000E+00  0.1300E+02  0.1300E+02
    -19.403  0.0000E+00  0.0000E+00  0.1300E+02  0.1300E+02
    -19.303  0.0000E+00  0.0000E+00  0.1300E+02  0.1300E+02
    -19.203  0.0000E+00  0.0000E+00  0.1300E+02  0.1300E+02
    -19.103  0.0000E+00  0.0000E+00  0.1300E+02  0.1300E+02
    -19.003  0.0000E+00  0.0000E+00  0.1300E+02  0.1300E+02
    -18.903  0.0000E+00  0.0000E+00  0.1300E+02  0.1300E+02
    -18.803  0.0000E+00  0.0000E+00  0.1300E+02  0.1300E+02
    -18.703  0.0000E+00  0.0000E+00  0.1300E+02  0.1300E+02
    -18.604  0.0000E+00  0.0000E+00  0.1300E+02  0.1300E+02
    -18.504  0.0000E+00  0.0000E+00  0.1300E+02  0.1300E+02
    -18.404  0.0000E+00  0.0000E+00  0.1300E+02  0.1300E+02
    -18.304  0.0000E+00  0.0000E+00  0.1300E+02  0.1300E+02
    -18.204  0.0000E+00  0.0000E+00  0.1300E+02  0.1300E+02
    -18.104  0.0000E+00  0.0000E+00  0.1300E+02  0.1300E+02
    -18.004  0.0000E+00  0.0000E+00  0.1300E+02  0.1300E+02
    -17.904  0.0000E+00  0.0000E+00  0.1300E+02  0.1300E+02
    -17.804  0.0000E+00  0.0000E+00  0.1300E+02  0.1300E+02
    -17.704  0.0000E+00  0.0000E+00  0.1300E+02  0.1300E+02
    -17.605  0.0000E+00  0.0000E+00  0.1300E+02  0.1300E+02
    -17.505  0.6698E-11  0.6700E-11  0.1300E+02  0.1300E+02
    -17.405  0.1001E-03  0.1001E-03  0.1300E+02  0.1300E+02
    -17.305  0.7508E+00  0.7508E+00  0.1308E+02  0.1308E+02
    -17.205  0.8430E+01  0.8430E+01  0.1392E+02  0.1392E+02
    -17.105  0.8296E+00  0.8295E+00  0.1400E+02  0.1400E+02
    -17.005  0.1271E-03  0.1270E-03  0.1400E+02  0.1400E+02
    -16.905  0.9847E-11  0.9845E-11  0.1400E+02  0.1400E+02
    -16.805  0.0000E+00  0.0000E+00  0.1400E+02  0.1400E+02
    -16.706  0.0000E+00  0.0000E+00  0.1400E+02  0.1400E+02
    -16.606  0.0000E+00  0.0000E+00  0.1400E+02  0.1400E+02
    -16.506  0.0000E+00  0.0000E+00  0.1400E+02  0.1400E+02
    -16.406  0.0000E+00  0.0000E+00  0.1400E+02  0.1400E+02
    -16.306  0.0000E+00  0.0000E+00  0.1400E+02  0.1400E+02
    -16.206  0.0000E+00  0.0000E+00  0.1400E+02  0.1400E+02
    -16.106  0.0000E+00  0.0000E+00  0.1400E+02  0.1400E+02
    -16.006  0.1459E-11  0.1460E-11  0.1400E+02  0.1400E+02
    -15.906  0.3864E-04  0.3864E-04  0.1400E+02  0.1400E+02
    -15.806  0.4979E+00  0.4979E+00  0.1405E+02  0.1405E+02
    -15.707  0.8318E+01  0.8318E+01  0.1488E+02  0.1488E+02
    -15.607  0.1195E+01  0.1195E+01  0.1500E+02  0.1500E+02
    -15.507  0.3125E-03  0.3125E-03  0.1500E+02  0.1500E+02
    -15.407  0.4285E-10  0.4284E-10  0.1500E+02  0.1500E+02
    -15.307  0.0000E+00  0.0000E+00  0.1500E+02  0.1500E+02
    -15.207  0.0000E+00  0.0000E+00  0.1500E+02  0.1500E+02
    -15.107  0.0000E+00  0.0000E+00  0.1500E+02  0.1500E+02
    -15.007  0.4426E-07  0.4426E-07  0.1500E+02  0.1500E+02
    -14.907  0.1718E-01  0.1718E-01  0.1500E+02  0.1500E+02
    -14.808  0.4595E+01  0.4595E+01  0.1546E+02  0.1546E+02
    -14.708  0.9098E+01  0.9098E+01  0.1637E+02  0.1637E+02
    -14.608  0.6800E+01  0.6800E+01  0.1705E+02  0.1705E+02
    -14.508  0.8422E+01  0.8422E+01  0.1789E+02  0.1789E+02
    -14.408  0.1100E+01  0.1100E+01  0.1800E+02  0.1800E+02
    -14.308  0.2540E-03  0.2540E-03  0.1800E+02  0.1800E+02
    -14.208  0.3046E-10  0.3046E-10  0.1800E+02  0.1800E+02
    -14.108  0.0000E+00  0.0000E+00  0.1800E+02  0.1800E+02
    -14.008  0.0000E+00  0.0000E+00  0.1800E+02  0.1800E+02
    -13.909  0.8514E-11  0.8517E-11  0.1800E+02  0.1800E+02
    -13.809  0.1177E-03  0.1177E-03  0.1800E+02  0.1800E+02
    -13.709  0.9108E+00  0.9109E+00  0.1809E+02  0.1809E+02
    -13.609  0.1555E+02  0.1555E+02  0.1964E+02  0.1964E+02
    -13.509  0.1111E+02  0.1111E+02  0.2075E+02  0.2075E+02
    -13.409  0.2455E+01  0.2455E+01  0.2100E+02  0.2100E+02
    -13.309  0.2198E-02  0.2198E-02  0.2100E+02  0.2100E+02
    -13.209  0.1144E-08  0.1144E-08  0.2100E+02  0.2100E+02
    -13.109  0.0000E+00  0.0000E+00  0.2100E+02  0.2100E+02
    -13.009  0.0000E+00  0.0000E+00  0.2100E+02  0.2100E+02
    -12.910  0.0000E+00  0.0000E+00  0.2100E+02  0.2100E+02
    -12.810  0.0000E+00  0.0000E+00  0.2100E+02  0.2100E+02
    -12.710  0.0000E+00  0.0000E+00  0.2100E+02  0.2100E+02
    -12.610  0.0000E+00  0.0000E+00  0.2100E+02  0.2100E+02
    -12.510  0.0000E+00  0.0000E+00  0.2100E+02  0.2100E+02
    -12.410  0.6879E-07  0.6881E-07  0.2100E+02  0.2100E+02
    -12.310  0.2181E-01  0.2181E-01  0.2100E+02  0.2100E+02
    -12.210  0.5045E+01  0.5045E+01  0.2151E+02  0.2151E+02
    -12.110  0.1427E+02  0.1427E+02  0.2293E+02  0.2293E+02
    -12.011  0.1069E+02  0.1069E+02  0.2400E+02  0.2400E+02
    -11.911  0.1380E+02  0.1380E+02  0.2538E+02  0.2538E+02
    -11.811  0.6213E+01  0.6212E+01  0.2600E+02  0.2600E+02
    -11.711  0.1380E-01  0.1380E-01  0.2600E+02  0.2600E+02
    -11.611  0.2542E-07  0.2542E-07  0.2600E+02  0.2600E+02
    -11.511  0.0000E+00  0.0000E+00  0.2600E+02  0.2600E+02
    -11.411  0.1750E-09  0.1750E-09  0.2600E+02  0.2600E+02
    -11.311  0.7283E-03  0.7284E-03  0.2600E+02  0.2600E+02
    -11.211  0.1653E+01  0.1653E+01  0.2617E+02  0.2617E+02
    -11.111  0.8036E+01  0.8036E+01  0.2697E+02  0.2697E+02
    -11.012  0.3203E+00  0.3203E+00  0.2700E+02  0.2700E+02
    -10.912  0.1453E-04  0.1452E-04  0.2700E+02  0.2700E+02
    -10.812  0.3802E-11  0.3802E-11  0.2700E+02  0.2700E+02
    -10.712  0.6673E-04  0.6673E-04  0.2700E+02  0.2700E+02
    -10.612  0.6322E+00  0.6322E+00  0.2706E+02  0.2706E+02
    -10.512  0.9863E+01  0.9863E+01  0.2805E+02  0.2805E+02
    -10.412  0.1002E+02  0.1002E+02  0.2905E+02  0.2905E+02
    -10.312  0.8808E+01  0.8808E+01  0.2993E+02  0.2993E+02
    -10.212  0.7070E+00  0.7070E+00  0.3000E+02  0.3000E+02
    -10.113  0.1241E+01  0.1241E+01  0.3012E+02  0.3012E+02
    -10.013  0.1401E+02  0.1401E+02  0.3152E+02  0.3152E+02
     -9.913  0.1449E+02  0.1449E+02  0.3297E+02  0.3297E+02
     -9.813  0.9874E+01  0.9874E+01  0.3396E+02  0.3396E+02
     -9.713  0.2386E+02  0.2386E+02  0.3634E+02  0.3634E+02
     -9.613  0.1778E+02  0.1778E+02  0.3812E+02  0.3812E+02
     -9.513  0.1903E+02  0.1903E+02  0.4002E+02  0.4002E+02
     -9.413  0.2188E+02  0.2188E+02  0.4220E+02  0.4220E+02
     -9.313  0.7977E+01  0.7977E+01  0.4300E+02  0.4300E+02
     -9.214  0.5166E+01  0.5166E+01  0.4352E+02  0.4352E+02
     -9.114  0.4816E+01  0.4816E+01  0.4400E+02  0.4400E+02
     -9.014  0.2070E-01  0.2070E-01  0.4400E+02  0.4400E+02
     -8.914  0.6249E-07  0.6249E-07  0.4400E+02  0.4400E+02
     -8.814  0.0000E+00  0.0000E+00  0.4400E+02  0.4400E+02
     -8.714  0.1321E-06  0.1321E-06  0.4400E+02  0.4400E+02
     -8.614  0.3090E-01  0.3090E-01  0.4400E+02  0.4400E+02
     -8.514  0.5324E+01  0.5324E+01  0.4453E+02  0.4453E+02
     -8.414  0.7804E+01  0.7804E+01  0.4531E+02  0.4531E+02
     -8.314  0.3072E+02  0.3072E+02  0.4838E+02  0.4838E+02
     -8.215  0.2467E+02  0.2467E+02  0.5085E+02  0.5085E+02
     -8.115  0.1863E+01  0.1863E+01  0.5103E+02  0.5103E+02
     -8.015  0.1434E+02  0.1434E+02  0.5247E+02  0.5247E+02
     -7.915  0.2899E+02  0.2899E+02  0.5536E+02  0.5536E+02