   32   32   50    2
  0.2500000E+03  0.2000000E-08  0.2000000E-08  0.2000000E-08  0.1000000E-15
   300.000000000000     
  CAR 
 CH4                                     
    126      1     99
