       N       E                     dE             d eps       ncg     rms          rms(c)
RMM:   1     0.194672634955E+04    0.19467E+04   -0.17244E+04   198   0.504E+02
RMM:   2     0.133985132766E+04   -0.60688E+03   -0.73721E+03   198   0.113E+02
RMM:   3     0.106255866239E+04   -0.27729E+03   -0.50914E+03   198   0.106E+02
RMM:   4     0.621357040865E+03   -0.44120E+03   -0.42378E+03   198   0.115E+02
RMM:   5     0.267363970244E+03   -0.35399E+03   -0.32651E+03   198   0.116E+02
RMM:   6     0.106084703454E+02   -0.25676E+03   -0.22908E+03   198   0.101E+02
RMM:   7    -0.119549706747E+03   -0.13016E+03   -0.11798E+03   198   0.713E+01
RMM:   8    -0.166387850844E+03   -0.46838E+02   -0.42367E+02   198   0.423E+01
RMM:   9    -0.192502853259E+03   -0.26115E+02   -0.18503E+02   398   0.225E+01
RMM:  10    -0.195054829898E+03   -0.25520E+01   -0.19938E+01   424   0.712E+00
RMM:  11    -0.195097848489E+03   -0.43019E-01   -0.69833E-01   396   0.148E+00
RMM:  12    -0.195109399783E+03   -0.11551E-01   -0.11133E-01   421   0.433E-01    0.460E+01
RMM:  13    -0.931886144882E+02    0.10192E+03   -0.23544E+02   396   0.360E+01    0.204E+01
RMM:  14    -0.132145456351E+03   -0.38957E+02   -0.40585E+01   396   0.138E+01    0.132E+01
RMM:  15    -0.139031947276E+03   -0.68865E+01   -0.51262E+00   396   0.594E+00    0.875E+00
RMM:  16    -0.164245485023E+03   -0.25214E+02   -0.13718E+01   396   0.899E+00    0.432E+00
RMM:  17    -0.175788399559E+03   -0.11543E+02   -0.66797E+00   396   0.474E+00    0.330E+00
RMM:  18    -0.184666354060E+03   -0.88780E+01   -0.47585E+00   396   0.394E+00    0.230E+00
RMM:  19    -0.192086180903E+03   -0.74198E+01   -0.41335E+00   396   0.350E+00    0.129E+00
RMM:  20    -0.194205139252E+03   -0.21190E+01   -0.99141E-01   396   0.170E+00    0.755E-01
RMM:  21    -0.195357561498E+03   -0.11524E+01   -0.21604E-01   400   0.820E-01    0.461E-01
RMM:  22    -0.196345666057E+03   -0.98810E+00   -0.85365E-02   396   0.557E-01    0.279E-01
RMM:  23    -0.196730940903E+03   -0.38527E+00   -0.15119E-02   396   0.238E-01    0.141E-01
RMM:  24    -0.197006930569E+03   -0.27599E+00   -0.56558E-03   396   0.146E-01    0.751E-02
RMM:  25    -0.197076192409E+03   -0.69262E-01   -0.23059E-03   396   0.854E-02    0.301E-02
RMM:  26    -0.197085881123E+03   -0.96887E-02   -0.71613E-04   372   0.462E-02    0.209E-02
RMM:  27    -0.197086152737E+03   -0.27161E-03   -0.23847E-04   346   0.268E-02    0.143E-02
RMM:  28    -0.197087489574E+03   -0.13368E-02   -0.13856E-04   357   0.214E-02    0.824E-03
RMM:  29    -0.197089433740E+03   -0.19442E-02   -0.95168E-05   342   0.159E-02    0.660E-03
RMM:  30    -0.197089884133E+03   -0.45039E-03   -0.12595E-05   279   0.717E-03    0.312E-03
RMM:  31    -0.197090272714E+03   -0.38858E-03   -0.84168E-06   271   0.683E-03    0.217E-03
RMM:  32    -0.197090284685E+03   -0.11971E-04   -0.36371E-06   258   0.418E-03    0.142E-03
RMM:  33    -0.197090307928E+03   -0.23243E-04   -0.13400E-06   248   0.299E-03    0.700E-04
RMM:  34    -0.197090369700E+03   -0.61772E-04   -0.95012E-07   236   0.251E-03    0.935E-04
RMM:  35    -0.197090405295E+03   -0.35595E-04   -0.40844E-07   195   0.187E-03    0.432E-04
RMM:  36    -0.197090418801E+03   -0.13506E-04   -0.13313E-07   174   0.171E-03    0.225E-04
RMM:  37    -0.197090423535E+03   -0.47345E-05   -0.86040E-08   157   0.149E-03
    1 T=  4242. E= -.18173915E+03 F= -.19709042E+03 E0= -.19709042E+03  EK= 0.15351E+02 SP= 0.00E+00 SK= 0.00E+00 mag=     -0.000
       N       E                     dE             d eps       ncg     rms          rms(c)
RMM:   1    -0.197089844362E+03    0.57444E-03   -0.25998E-01   396   0.739E-01    0.102E-01
RMM:   2    -0.197086072240E+03    0.37721E-02   -0.17466E-02   413   0.132E-01    0.755E-02
RMM:   3    -0.197089542610E+03   -0.34704E-02   -0.33617E-04   372   0.321E-02    0.462E-02
RMM:   4    -0.197089682261E+03   -0.13965E-03   -0.29901E-04   365   0.236E-02    0.202E-02
RMM:   5    -0.197089761781E+03   -0.79520E-04   -0.20316E-04   296   0.182E-02    0.993E-03
RMM:   6    -0.197089889898E+03   -0.12812E-03   -0.11628E-05   276   0.749E-03    0.845E-03
RMM:   7    -0.197089928999E+03   -0.39101E-04   -0.50308E-06   254   0.408E-03    0.332E-03
RMM:   8    -0.197089945605E+03   -0.16606E-04   -0.23782E-06   235   0.280E-03    0.119E-03
RMM:   9    -0.197089952905E+03   -0.73008E-05   -0.58698E-07   156   0.184E-03
    2 T=  4241. E= -.18173908E+03 F= -.19708995E+03 E0= -.19708995E+03  EK= 0.15351E+02 SP= 0.00E+00 SK= 0.00E+00 mag=     -0.000
       N       E                     dE             d eps       ncg     rms          rms(c)
RMM:   1    -0.197089416714E+03    0.52889E-03   -0.26436E-04   292   0.202E-02    0.202E-03
RMM:   2    -0.197089414074E+03    0.26396E-05   -0.54161E-06   225   0.374E-03    0.138E-03
RMM:   3    -0.197089421065E+03   -0.69913E-05   -0.52683E-07   169   0.199E-03    0.130E-03
RMM:   4    -0.197089423015E+03   -0.19495E-05   -0.14042E-07   155   0.169E-03
    3 T=  4241. E= -.18173919E+03 F= -.19708942E+03 E0= -.19708942E+03  EK= 0.15350E+02 SP= 0.00E+00 SK= 0.00E+00 mag=      0.000
       N       E                     dE             d eps       ncg     rms          rms(c)
RMM:   1    -0.197088557535E+03    0.86353E-03   -0.25622E-05   282   0.795E-03    0.187E-03
RMM:   2    -0.197088557608E+03   -0.72838E-07   -0.16368E-06   235   0.303E-03    0.100E-03
RMM:   3    -0.197088560954E+03   -0.33462E-05   -0.31889E-07   172   0.178E-03    0.487E-04
RMM:   4    -0.197088561942E+03   -0.98749E-06   -0.57076E-08   152   0.146E-03
    4 T=  4241. E= -.18173911E+03 F= -.19708856E+03 E0= -.19708856E+03  EK= 0.15349E+02 SP= 0.00E+00 SK= 0.00E+00 mag=     -0.000
       N       E                     dE             d eps       ncg     rms          rms(c)
RMM:   1    -0.197087823808E+03    0.73715E-03   -0.25268E-05   282   0.745E-03    0.117E-03
RMM:   2    -0.197087828091E+03   -0.42833E-05   -0.17264E-06   239   0.291E-03    0.983E-04
RMM:   3    -0.197087832545E+03   -0.44534E-05   -0.35148E-07   174   0.180E-03    0.460E-04
RMM:   4    -0.197087834438E+03   -0.18928E-05   -0.21112E-07   170   0.178E-03
    5 T=  4241. E= -.18173936E+03 F= -.19708783E+03 E0= -.19708783E+03  EK= 0.15348E+02 SP= 0.00E+00 SK= 0.00E+00 mag=     -0.000
       N       E                     dE             d eps       ncg     rms          rms(c)
RMM:   1    -0.197086262698E+03    0.15698E-02   -0.28938E-05   282   0.769E-03    0.157E-03
RMM:   2    -0.197086264532E+03   -0.18346E-05   -0.24095E-06   234   0.307E-03    0.550E-04
RMM:   3    -0.197086265807E+03   -0.12749E-05   -0.52265E-07   175   0.190E-03    0.286E-04
RMM:   4    -0.197086266827E+03   -0.10200E-05   -0.11165E-07   153   0.169E-03
    6 T=  4240. E= -.18173931E+03 F= -.19708627E+03 E0= -.19708627E+03  EK= 0.15347E+02 SP= 0.00E+00 SK= 0.00E+00 mag=     -0.000
       N       E                     dE             d eps       ncg     rms          rms(c)
RMM:   1    -0.197084211571E+03    0.20542E-02   -0.53598E-05   286   0.867E-03    0.160E-03
RMM:   2    -0.197084212945E+03   -0.13741E-05   -0.29865E-06   250   0.336E-03    0.706E-04
RMM:   3    -0.197084213366E+03   -0.42078E-06   -0.55695E-07   179   0.187E-03    0.369E-04
RMM:   4    -0.197084214803E+03   -0.14370E-05   -0.13689E-07   160   0.165E-03
    7 T=  4240. E= -.18173949E+03 F= -.19708421E+03 E0= -.19708421E+03  EK= 0.15345E+02 SP= 0.00E+00 SK= 0.00E+00 mag=     -0.000
       N       E                     dE             d eps       ncg     rms          rms(c)
RMM:   1    -0.197081745532E+03    0.24678E-02   -0.73100E-05   286   0.887E-03    0.154E-03
RMM:   2    -0.197081746071E+03   -0.53831E-06   -0.26946E-06   250   0.330E-03    0.332E-04
RMM:   3    -0.197081746301E+03   -0.23066E-06   -0.46714E-07   170   0.177E-03    0.188E-04
RMM:   4    -0.197081746698E+03   -0.39620E-06   -0.83529E-08   153   0.153E-03
    8 T=  4239. E= -.18173958E+03 F= -.19708175E+03 E0= -.19708175E+03  EK= 0.15342E+02 SP= 0.00E+00 SK= 0.00E+00 mag=      0.000
       N       E                     dE             d eps       ncg     rms          rms(c)
RMM:   1    -0.197078768767E+03    0.29775E-02   -0.56550E-05   284   0.801E-03    0.125E-03
RMM:   2    -0.197078774949E+03   -0.61816E-05   -0.24958E-06   248   0.312E-03    0.310E-04
RMM:   3    -0.197078774989E+03   -0.40493E-07   -0.32713E-07   164   0.168E-03    0.233E-04
RMM:   4    -0.197078775758E+03   -0.76862E-06   -0.27752E-08   147   0.151E-03
    9 T=  4238. E= -.18173948E+03 F= -.19707878E+03 E0= -.19707878E+03  EK= 0.15339E+02 SP= 0.00E+00 SK= 0.00E+00 mag=      0.000
       N       E                     dE             d eps       ncg     rms          rms(c)
RMM:   1    -0.197075319615E+03    0.34554E-02   -0.39512E-05   285   0.746E-03    0.105E-03
RMM:   2    -0.197075322986E+03   -0.33703E-05   -0.20416E-06   237   0.300E-03    0.282E-04
RMM:   3    -0.197075323158E+03   -0.17275E-06   -0.38947E-07   171   0.184E-03    0.173E-04
RMM:   4    -0.197075323551E+03   -0.39280E-06   -0.73283E-08   153   0.164E-03
   10 T=  4237. E= -.18173920E+03 F= -.19707532E+03 E0= -.19707532E+03  EK= 0.15336E+02 SP= 0.00E+00 SK= 0.00E+00 mag=      0.000
       N       E                     dE             d eps       ncg     rms          rms(c)
RMM:   1    -0.197072059397E+03    0.32638E-02   -0.32063E-05   282   0.816E-03    0.113E-03
RMM:   2    -0.197072058826E+03    0.57146E-06   -0.22711E-06   246   0.307E-03    0.434E-04
RMM:   3    -0.197072060132E+03   -0.13057E-05   -0.44336E-07   172   0.182E-03    0.219E-04
RMM:   4    -0.197072061035E+03   -0.90313E-06   -0.11962E-07   155   0.161E-03
   11 T=  4236. E= -.18173906E+03 F= -.19707206E+03 E0= -.19707206E+03  EK= 0.15333E+02 SP= 0.00E+00 SK= 0.00E+00 mag=      0.000
       N       E                     dE             d eps       ncg     rms          rms(c)
RMM:   1    -0.197068728797E+03    0.33313E-02   -0.36252E-05   282   0.807E-03    0.120E-03
RMM:   2    -0.197068729111E+03   -0.31409E-06   -0.26287E-06   254   0.317E-03    0.317E-04
RMM:   3    -0.197068728942E+03    0.16921E-06   -0.51887E-07   176   0.178E-03    0.177E-04
RMM:   4    -0.197068728942E+03   -0.23647E-09   -0.96983E-08   152   0.154E-03
   12 T=  4236. E= -.18173898E+03 F= -.19706873E+03 E0= -.19706873E+03  EK= 0.15330E+02 SP= 0.00E+00 SK= 0.00E+00 mag=      0.000
       N       E                     dE             d eps       ncg     rms          rms(c)
RMM:   1    -0.197065715639E+03    0.30133E-02   -0.36291E-05   283   0.820E-03    0.119E-03
RMM:   2    -0.197065717309E+03   -0.16695E-05   -0.28428E-06   255   0.347E-03    0.274E-04
RMM:   3    -0.197065717116E+03    0.19257E-06   -0.66306E-07   184   0.194E-03    0.197E-04
RMM:   4    -0.197065717716E+03   -0.59926E-06   -0.11174E-07   153   0.157E-03
   13 T=  4235. E= -.18173898E+03 F= -.19706572E+03 E0= -.19706572E+03  EK= 0.15327E+02 SP= 0.00E+00 SK= 0.00E+00 mag=     -0.000
       N       E                     dE             d eps       ncg     rms          rms(c)
RMM:   1    -0.197063226423E+03    0.24907E-02   -0.62948E-05   287   0.869E-03    0.907E-04
RMM:   2    -0.197063231625E+03   -0.52028E-05   -0.32988E-06   249   0.346E-03    0.273E-04
RMM:   3    -0.197063233503E+03   -0.18777E-05   -0.62587E-07   181   0.193E-03    0.166E-04
RMM:   4    -0.197063234303E+03   -0.79967E-06   -0.10947E-07   154   0.162E-03
   14 T=  4234. E= -.18173900E+03 F= -.19706323E+03 E0= -.19706323E+03  EK= 0.15324E+02 SP= 0.00E+00 SK= 0.00E+00 mag=     -0.000
       N       E                     dE             d eps       ncg     rms          rms(c)
RMM:   1    -0.197060689548E+03    0.25440E-02   -0.69276E-05   286   0.891E-03    0.830E-04
RMM:   2    -0.197060692044E+03   -0.24956E-05   -0.33326E-06   252   0.352E-03    0.235E-04
RMM:   3    -0.197060692169E+03   -0.12475E-06   -0.69356E-07   185   0.194E-03    0.171E-04
RMM:   4    -0.197060692633E+03   -0.46410E-06   -0.12507E-07   155   0.160E-03
   15 T=  4233. E= -.18173887E+03 F= -.19706069E+03 E0= -.19706069E+03  EK= 0.15322E+02 SP= 0.00E+00 SK= 0.00E+00 mag=     -0.000
       N       E                     dE             d eps       ncg     rms          rms(c)
RMM:   1    -0.197058505420E+03    0.21867E-02   -0.38880E-05   285   0.787E-03    0.770E-04
RMM:   2    -0.197058505083E+03    0.33704E-06   -0.25647E-06   253   0.318E-03    0.241E-04
RMM:   3    -0.197058505857E+03   -0.77393E-06   -0.53159E-07   177   0.186E-03    0.159E-04
RMM:   4    -0.197058506313E+03   -0.45663E-06   -0.99306E-08   153   0.161E-03
   16 T=  4233. E= -.18173877E+03 F= -.19705851E+03 E0= -.19705851E+03  EK= 0.15320E+02 SP= 0.00E+00 SK= 0.00E+00 mag=      0.000
       N       E                     dE             d eps       ncg     rms          rms(c)
RMM:   1    -0.197056976907E+03    0.15289E-02   -0.42444E-05   284   0.781E-03    0.730E-04
RMM:   2    -0.197056977832E+03   -0.92503E-06   -0.26078E-06   251   0.325E-03    0.216E-04
RMM:   3    -0.197056978156E+03   -0.32371E-06   -0.54572E-07   182   0.183E-03    0.166E-04
RMM:   4    -0.197056978385E+03   -0.22888E-06   -0.61514E-08   150   0.153E-03
   17 T=  4232. E= -.18173885E+03 F= -.19705698E+03 E0= -.19705698E+03  EK= 0.15318E+02 SP= 0.00E+00 SK= 0.00E+00 mag=      0.000
       N       E                     dE             d eps       ncg     rms          rms(c)
RMM:   1    -0.197055440341E+03    0.15378E-02   -0.62229E-05   286   0.847E-03    0.627E-04
RMM:   2    -0.197055441280E+03   -0.93958E-06   -0.31433E-06   247   0.337E-03    0.241E-04
RMM:   3    -0.197055441401E+03   -0.12094E-06   -0.64351E-07   179   0.194E-03    0.129E-04
RMM:   4    -0.197055441521E+03   -0.12016E-06   -0.12109E-07   153   0.164E-03
   18 T=  4232. E= -.18173875E+03 F= -.19705544E+03 E0= -.19705544E+03  EK= 0.15317E+02 SP= 0.00E+00 SK= 0.00E+00 mag=      0.000
       N       E                     dE             d eps       ncg     rms          rms(c)
RMM:   1    -0.197054156413E+03    0.12850E-02   -0.80235E-05   287   0.850E-03    0.616E-04
RMM:   2    -0.197054156677E+03   -0.26360E-06   -0.33580E-06   257   0.347E-03    0.237E-04
RMM:   3    -0.197054156947E+03   -0.26997E-06   -0.65777E-07   185   0.189E-03    0.205E-04
RMM:   4    -0.197054157060E+03   -0.11368E-06   -0.67457E-08   149   0.155E-03
   19 T=  4232. E= -.18173867E+03 F= -.19705416E+03 E0= -.19705416E+03  EK= 0.15315E+02 SP= 0.00E+00 SK= 0.00E+00 mag=      0.000
       N       E                     dE             d eps       ncg     rms          rms(c)
RMM:   1    -0.197052893211E+03    0.12637E-02   -0.10358E-04   287   0.891E-03    0.616E-04
RMM:   2    -0.197052894190E+03   -0.97904E-06   -0.34007E-06   248   0.350E-03    0.210E-04
RMM:   3    -0.197052894409E+03   -0.21884E-06   -0.78238E-07   193   0.203E-03    0.134E-04
RMM:   4    -0.197052894506E+03   -0.97116E-07   -0.14035E-07   158   0.158E-03
   20 T=  4231. E= -.18173871E+03 F= -.19705289E+03 E0= -.19705289E+03  EK= 0.15314E+02 SP= 0.00E+00 SK= 0.00E+00 mag=      0.000
       N       E                     dE             d eps       ncg     rms          rms(c)
RMM:   1    -0.197051184057E+03    0.17104E-02   -0.91282E-05   289   0.896E-03    0.527E-04
RMM:   2    -0.197051184902E+03   -0.84490E-06   -0.30892E-06   246   0.348E-03    0.255E-04
RMM:   3    -0.197051185005E+03   -0.10310E-06   -0.71056E-07   187   0.201E-03    0.182E-04
RMM:   4    -0.197051185304E+03   -0.29914E-06   -0.14071E-07   157   0.165E-03
   21 T=  4231. E= -.18173878E+03 F= -.19705119E+03 E0= -.19705119E+03  EK= 0.15312E+02 SP= 0.00E+00 SK= 0.00E+00 mag=     -0.000
       N       E                     dE             d eps       ncg     rms          rms(c)
RMM:   1    -0.197049305239E+03    0.18798E-02   -0.12038E-04   292   0.986E-03    0.500E-04
RMM:   2    -0.197049305713E+03   -0.47476E-06   -0.38027E-06   254   0.374E-03    0.264E-04
RMM:   3    -0.197049306117E+03   -0.40404E-06   -0.78222E-07   194   0.196E-03    0.176E-04
RMM:   4    -0.197049306222E+03   -0.10448E-06   -0.80139E-08   151   0.156E-03
   22 T=  4230. E= -.18173883E+03 F= -.19704931E+03 E0= -.19704931E+03  EK= 0.15310E+02 SP= 0.00E+00 SK= 0.00E+00 mag=      0.000
       N       E                     dE             d eps       ncg     rms          rms(c)
RMM:   1    -0.197047134197E+03    0.21719E-02   -0.12065E-04   294   0.103E-02    0.563E-04
RMM:   2    -0.197047134575E+03   -0.37775E-06   -0.43814E-06   253   0.407E-03    0.270E-04
RMM:   3    -0.197047134821E+03   -0.24580E-06   -0.10508E-06   202   0.220E-03    0.152E-04
RMM:   4    -0.197047134938E+03   -0.11714E-06   -0.18102E-07   162   0.169E-03
   23 T=  4230. E= -.18173866E+03 F= -.19704713E+03 E0= -.19704713E+03  EK= 0.15308E+02 SP= 0.00E+00 SK= 0.00E+00 mag=      0.000
       N       E                     dE             d eps       ncg     rms          rms(c)
RMM:   1    -0.197044487781E+03    0.26470E-02   -0.10433E-04   295   0.992E-03    0.574E-04
RMM:   2    -0.197044488326E+03   -0.54489E-06   -0.38373E-06   257   0.372E-03    0.284E-04
RMM:   3    -0.197044488418E+03   -0.91990E-07   -0.78285E-07   186   0.196E-03    0.176E-04
RMM:   4    -0.197044488482E+03   -0.63366E-07   -0.12714E-07   154   0.157E-03
   24 T=  4229. E= -.18173860E+03 F= -.19704449E+03 E0= -.19704449E+03  EK= 0.15306E+02 SP= 0.00E+00 SK= 0.00E+00 mag=      0.000
       N       E                     dE             d eps       ncg     rms          rms(c)
RMM:   1    -0.197041883826E+03    0.26046E-02   -0.12273E-04   293   0.964E-03    0.661E-04
RMM:   2    -0.197041884420E+03   -0.59352E-06   -0.39546E-06   247   0.364E-03    0.234E-04
RMM:   3    -0.197041884477E+03   -0.57538E-07   -0.76111E-07   190   0.200E-03    0.173E-04
RMM:   4    -0.197041884512E+03   -0.34990E-07   -0.12508E-07   155   0.161E-03
   25 T=  4228. E= -.18173876E+03 F= -.19704188E+03 E0= -.19704188E+03  EK= 0.15303E+02 SP= 0.00E+00 SK= 0.00E+00 mag=     -0.000
       N       E                     dE             d eps       ncg     rms          rms(c)
RMM:   1    -0.197039380409E+03    0.25041E-02   -0.12662E-04   291   0.978E-03    0.580E-04
RMM:   2    -0.197039381229E+03   -0.81980E-06   -0.40453E-06   257   0.390E-03    0.272E-04
RMM:   3    -0.197039381322E+03   -0.93502E-07   -0.84265E-07   197   0.206E-03    0.169E-04
RMM:   4    -0.197039381350E+03   -0.27441E-07   -0.14278E-07   159   0.159E-03
   26 T=  4228. E= -.18173868E+03 F= -.19703938E+03 E0= -.19703938E+03  EK= 0.15301E+02 SP= 0.00E+00 SK= 0.00E+00 mag=     -0.000
       N       E                     dE             d eps       ncg     rms          rms(c)
RMM:   1    -0.197037119139E+03    0.22622E-02   -0.12222E-04   290   0.949E-03    0.512E-04
RMM:   2    -0.197037119616E+03   -0.47639E-06   -0.33445E-06   251   0.355E-03    0.224E-04
RMM:   3    -0.197037119772E+03   -0.15597E-06   -0.79881E-07   196   0.202E-03    0.198E-04
RMM:   4    -0.197037119856E+03   -0.83868E-07   -0.12174E-07   155   0.157E-03
   27 T=  4227. E= -.18173880E+03 F= -.19703712E+03 E0= -.19703712E+03  EK= 0.15298E+02 SP= 0.00E+00 SK= 0.00E+00 mag=     -0.000
       N       E                     dE             d eps       ncg     rms          rms(c)
RMM:   1    -0.197034815911E+03    0.23039E-02   -0.82597E-05   291   0.872E-03    0.400E-04
RMM:   2    -0.197034816289E+03   -0.37759E-06   -0.31597E-06   247   0.344E-03    0.222E-04
RMM:   3    -0.197034816428E+03   -0.13906E-06   -0.64203E-07   187   0.192E-03    0.137E-04
RMM:   4    -0.197034816479E+03   -0.50784E-07   -0.80988E-08   151   0.158E-03
   28 T=  4226. E= -.18173873E+03 F= -.19703482E+03 E0= -.19703482E+03  EK= 0.15296E+02 SP= 0.00E+00 SK= 0.00E+00 mag=      0.000
       N       E                     dE             d eps       ncg     rms          rms(c)
RMM:   1    -0.197032952422E+03    0.18640E-02   -0.90292E-05   293   0.933E-03    0.412E-04
RMM:   2    -0.197032952733E+03   -0.31034E-06   -0.39039E-06   252   0.380E-03    0.233E-04
RMM:   3    -0.197032952785E+03   -0.52229E-07   -0.86709E-07   194   0.207E-03    0.206E-04
RMM:   4    -0.197032952909E+03   -0.12386E-06   -0.15454E-07   159   0.164E-03
   29 T=  4226. E= -.18173878E+03 F= -.19703295E+03 E0= -.19703295E+03  EK= 0.15294E+02 SP= 0.00E+00 SK= 0.00E+00 mag=      0.000
       N       E                     dE             d eps       ncg     rms          rms(c)
RMM:   1    -0.197030555021E+03    0.23978E-02   -0.10994E-04   294   0.984E-03    0.402E-04
RMM:   2    -0.197030555470E+03   -0.44855E-06   -0.39498E-06   251   0.384E-03    0.227E-04
RMM:   3    -0.197030555594E+03   -0.12359E-06   -0.90319E-07   202   0.210E-03    0.149E-04
RMM:   4    -0.197030555683E+03   -0.89371E-07   -0.14237E-07   159   0.162E-03
   30 T=  4225. E= -.18173843E+03 F= -.19703056E+03 E0= -.19703056E+03  EK= 0.15292E+02 SP= 0.00E+00 SK= 0.00E+00 mag=      0.000
       N       E                     dE             d eps       ncg     rms          rms(c)
RMM:   1    -0.197027959821E+03    0.25958E-02   -0.10962E-04   298   0.998E-03    0.429E-04
RMM:   2    -0.197027960350E+03   -0.52958E-06   -0.37908E-06   254   0.380E-03    0.209E-04
RMM:   3    -0.197027960451E+03   -0.10037E-06   -0.93118E-07   196   0.207E-03    0.165E-04
RMM:   4    -0.197027960488E+03   -0.36784E-07   -0.13974E-07   153   0.160E-03
   31 T=  4224. E= -.18173850E+03 F= -.19702796E+03 E0= -.19702796E+03  EK= 0.15289E+02 SP= 0.00E+00 SK= 0.00E+00 mag=      0.000
       N       E                     dE             d eps       ncg     rms          rms(c)
RMM:   1    -0.197025224553E+03    0.27359E-02   -0.10538E-04   295   0.998E-03    0.400E-04
RMM:   2    -0.197025224968E+03   -0.41467E-06   -0.40705E-06   253   0.386E-03    0.213E-04
RMM:   3    -0.197025225093E+03   -0.12540E-06   -0.90959E-07   199   0.211E-03    0.157E-04
RMM:   4    -0.197025225142E+03   -0.48989E-07   -0.12504E-07   152   0.164E-03
   32 T=  4224. E= -.18173861E+03 F= -.19702523E+03 E0= -.19702523E+03  EK= 0.15287E+02 SP= 0.00E+00 SK= 0.00E+00 mag=      0.000
       N       E                     dE             d eps       ncg     rms          rms(c)
RMM:   1    -0.197022262500E+03    0.29626E-02   -0.14189E-04   299   0.109E-02    0.374E-04
RMM:   2    -0.197022262927E+03   -0.42736E-06   -0.46653E-06   259   0.419E-03    0.226E-04
RMM:   3    -0.197022263046E+03   -0.11863E-06   -0.10697E-06   207   0.218E-03    0.168E-04
RMM:   4    -0.197022263095E+03   -0.49478E-07   -0.18799E-07   161   0.163E-03
   33 T=  4223. E= -.18173852E+03 F= -.19702226E+03 E0= -.19702226E+03  EK= 0.15284E+02 SP= 0.00E+00 SK= 0.00E+00 mag=     -0.000
       N       E                     dE             d eps       ncg     rms          rms(c)
RMM:   1    -0.197019077713E+03    0.31853E-02   -0.12677E-04   302   0.103E-02    0.415E-04
RMM:   2    -0.197019078287E+03   -0.57412E-06   -0.37010E-06   254   0.369E-03    0.238E-04
RMM:   3    -0.197019078423E+03   -0.13639E-06   -0.88312E-07   201   0.204E-03    0.208E-04
RMM:   4    -0.197019078457E+03   -0.33200E-07   -0.11662E-07   154   0.156E-03
   34 T=  4222. E= -.18173826E+03 F= -.19701908E+03 E0= -.19701908E+03  EK= 0.15281E+02 SP= 0.00E+00 SK= 0.00E+00 mag=     -0.000
       N       E                     dE             d eps       ncg     rms          rms(c)
RMM:   1    -0.197016325954E+03    0.27525E-02   -0.14759E-04   313   0.112E-02    0.449E-04
RMM:   2    -0.197016326297E+03   -0.34264E-06   -0.41604E-06   259   0.413E-03    0.228E-04
RMM:   3    -0.197016326370E+03   -0.72960E-07   -0.90112E-07   196   0.204E-03    0.138E-04
RMM:   4    -0.197016326460E+03   -0.90786E-07   -0.17393E-07   159   0.158E-03
   35 T=  4221. E= -.18173814E+03 F= -.19701633E+03 E0= -.19701633E+03  EK= 0.15278E+02 SP= 0.00E+00 SK= 0.00E+00 mag=     -0.000
       N       E                     dE             d eps       ncg     rms          rms(c)
RMM:   1    -0.197013741041E+03    0.25853E-02   -0.19351E-04   312   0.121E-02    0.455E-04
RMM:   2    -0.197013741498E+03   -0.45650E-06   -0.45248E-06   255   0.412E-03    0.236E-04
RMM:   3    -0.197013741625E+03   -0.12746E-06   -0.95296E-07   198   0.208E-03    0.147E-04
RMM:   4    -0.197013741665E+03   -0.39647E-07   -0.17406E-07   158   0.160E-03
   36 T=  4221. E= -.18173809E+03 F= -.19701374E+03 E0= -.19701374E+03  EK= 0.15276E+02 SP= 0.00E+00 SK= 0.00E+00 mag=     -0.000
       N       E                     dE             d eps       ncg     rms          rms(c)
RMM:   1    -0.197011665559E+03    0.20761E-02   -0.24387E-04   318   0.130E-02    0.523E-04
RMM:   2    -0.197011666061E+03   -0.50255E-06   -0.47477E-06   256   0.433E-03    0.221E-04
RMM:   3    -0.197011666187E+03   -0.12608E-06   -0.10648E-06   196   0.211E-03    0.144E-04
RMM:   4    -0.197011666227E+03   -0.39865E-07   -0.23512E-07   164   0.163E-03
   37 T=  4220. E= -.18173809E+03 F= -.19701167E+03 E0= -.19701167E+03  EK= 0.15274E+02 SP= 0.00E+00 SK= 0.00E+00 mag=     -0.000
       N       E                     dE             d eps       ncg     rms          rms(c)
RMM:   1    -0.197010312454E+03    0.13537E-02   -0.20442E-04   315   0.124E-02    0.559E-04
RMM:   2    -0.197010312874E+03   -0.42077E-06   -0.45986E-06   260   0.421E-03    0.232E-04
RMM:   3    -0.197010312960E+03   -0.86024E-07   -0.98814E-07   198   0.203E-03    0.159E-04
RMM:   4    -0.197010313001E+03   -0.40216E-07   -0.19317E-07   159   0.159E-03
   38 T=  4220. E= -.18173805E+03 F= -.19701031E+03 E0= -.19701031E+03  EK= 0.15272E+02 SP= 0.00E+00 SK= 0.00E+00 mag=      0.000
       N       E                     dE             d eps       ncg     rms          rms(c)
RMM:   1    -0.197009076197E+03    0.12368E-02   -0.18821E-04   321   0.126E-02    0.608E-04
RMM:   2    -0.197009076673E+03   -0.47603E-06   -0.43709E-06   256   0.414E-03    0.214E-04
RMM:   3    -0.197009076771E+03   -0.97602E-07   -0.96810E-07   193   0.207E-03    0.146E-04
RMM:   4    -0.197009076814E+03   -0.43350E-07   -0.24392E-07   166   0.163E-03
   39 T=  4219. E= -.18173787E+03 F= -.19700908E+03 E0= -.19700908E+03  EK= 0.15271E+02 SP= 0.00E+00 SK= 0.00E+00 mag=      0.000
       N       E                     dE             d eps       ncg     rms          rms(c)
RMM:   1    -0.197008325717E+03    0.75105E-03   -0.23071E-04   319   0.130E-02    0.597E-04
RMM:   2    -0.197008326165E+03   -0.44789E-06   -0.48571E-06   260   0.436E-03    0.203E-04
RMM:   3    -0.197008326307E+03   -0.14226E-06   -0.10247E-06   195   0.210E-03    0.130E-04
RMM:   4    -0.197008326351E+03   -0.44049E-07   -0.18913E-07   159   0.163E-03
   40 T=  4219. E= -.18173778E+03 F= -.19700833E+03 E0= -.19700833E+03  EK= 0.15271E+02 SP= 0.00E+00 SK= 0.00E+00 mag=      0.000
       N       E                     dE             d eps       ncg     rms          rms(c)
RMM:   1    -0.197008350588E+03   -0.24280E-04   -0.21189E-04   312   0.125E-02    0.572E-04
RMM:   2    -0.197008350988E+03   -0.39975E-06   -0.46511E-06   263   0.430E-03    0.217E-04
RMM:   3    -0.197008351088E+03   -0.10005E-06   -0.10194E-06   201   0.210E-03    0.143E-04
RMM:   4    -0.197008351119E+03   -0.31470E-07   -0.21299E-07   163   0.161E-03
   41 T=  4219. E= -.18173788E+03 F= -.19700835E+03 E0= -.19700835E+03  EK= 0.15270E+02 SP= 0.00E+00 SK= 0.00E+00 mag=     -0.000
       N       E                     dE             d eps       ncg     rms          rms(c)
RMM:   1    -0.197008458522E+03   -0.10743E-03   -0.14274E-04   314   0.113E-02    0.655E-04
RMM:   2    -0.197008459038E+03   -0.51507E-06   -0.42184E-06   251   0.414E-03    0.199E-04
RMM:   3    -0.197008459167E+03   -0.12976E-06   -0.93190E-07   193   0.209E-03    0.144E-04
RMM:   4    -0.197008459208E+03   -0.40907E-07   -0.17200E-07   159   0.165E-03
   42 T=  4219. E= -.18173780E+03 F= -.19700846E+03 E0= -.19700846E+03  EK= 0.15271E+02 SP= 0.00E+00 SK= 0.00E+00 mag=     -0.000
       N       E                     dE             d eps       ncg     rms          rms(c)
RMM:   1    -0.197008883487E+03   -0.42432E-03   -0.16000E-04   308   0.115E-02    0.644E-04
RMM:   2    -0.197008883963E+03   -0.47600E-06   -0.50782E-06   261   0.423E-03    0.224E-04
RMM:   3    -0.197008884060E+03   -0.97651E-07   -0.89701E-07   194   0.203E-03    0.157E-04
RMM:   4    -0.197008884088E+03   -0.27871E-07   -0.17032E-07   156   0.160E-03
   43 T=  4219. E= -.18173774E+03 F= -.19700888E+03 E0= -.19700888E+03  EK= 0.15271E+02 SP= 0.00E+00 SK= 0.00E+00 mag=     -0.000
       N       E                     dE             d eps       ncg     rms          rms(c)
RMM:   1    -0.197009378554E+03   -0.49449E-03   -0.17920E-04   305   0.115E-02    0.673E-04
RMM:   2    -0.197009379001E+03   -0.44727E-06   -0.45153E-06   252   0.428E-03    0.212E-04
RMM:   3    -0.197009379133E+03   -0.13197E-06   -0.10348E-06   204   0.216E-03    0.170E-04
RMM:   4    -0.197009379178E+03   -0.44371E-07   -0.18319E-07   159   0.165E-03
   44 T=  4219. E= -.18173781E+03 F= -.19700938E+03 E0= -.19700938E+03  EK= 0.15272E+02 SP= 0.00E+00 SK= 0.00E+00 mag=     -0.000
       N       E                     dE             d eps       ncg     rms          rms(c)
RMM:   1    -0.197009433459E+03   -0.54326E-04   -0.15372E-04   314   0.115E-02    0.670E-04
RMM:   2    -0.197009433933E+03   -0.47370E-06   -0.39191E-06   255   0.401E-03    0.244E-04
RMM:   3    -0.197009434060E+03   -0.12733E-06   -0.99477E-07   198   0.214E-03    0.163E-04
RMM:   4    -0.197009434103E+03   -0.42732E-07   -0.23252E-07   165   0.163E-03
   45 T=  4219. E= -.18173790E+03 F= -.19700943E+03 E0= -.19700943E+03  EK= 0.15272E+02 SP= 0.00E+00 SK= 0.00E+00 mag=     -0.000
       N       E                     dE             d eps       ncg     rms          rms(c)
RMM:   1    -0.197009289176E+03    0.14488E-03   -0.13536E-04   309   0.112E-02    0.644E-04
RMM:   2    -0.197009289569E+03   -0.39375E-06   -0.42992E-06   252   0.408E-03    0.228E-04
RMM:   3    -0.197009289675E+03   -0.10539E-06   -0.85643E-07   189   0.207E-03    0.158E-04
RMM:   4    -0.197009289717E+03   -0.41782E-07   -0.18863E-07   159   0.164E-03
   46 T=  4219. E= -.18173797E+03 F= -.19700929E+03 E0= -.19700929E+03  EK= 0.15271E+02 SP= 0.00E+00 SK= 0.00E+00 mag=      0.000
       N       E                     dE             d eps       ncg     rms          rms(c)
RMM:   1    -0.197008806534E+03    0.48314E-03   -0.19223E-04   318   0.127E-02    0.606E-04
RMM:   2    -0.197008807048E+03   -0.51419E-06   -0.49532E-06   261   0.446E-03    0.225E-04
RMM:   3    -0.197008807157E+03   -0.10919E-06   -0.10219E-06   198   0.213E-03    0.183E-04
RMM:   4    -0.197008807180E+03   -0.22463E-07   -0.18682E-07   159   0.164E-03
   47 T=  4219. E= -.18173783E+03 F= -.19700881E+03 E0= -.19700881E+03  EK= 0.15271E+02 SP= 0.00E+00 SK= 0.00E+00 mag=      0.000
       N       E                     dE             d eps       ncg     rms          rms(c)
RMM:   1    -0.197007787283E+03    0.10199E-02   -0.14191E-04   309   0.113E-02    0.493E-04
RMM:   2    -0.197007787724E+03   -0.44096E-06   -0.41003E-06   250   0.398E-03    0.228E-04
RMM:   3    -0.197007787851E+03   -0.12685E-06   -0.98108E-07   196   0.209E-03    0.150E-04
RMM:   4    -0.197007787886E+03   -0.34828E-07   -0.18402E-07   158   0.164E-03
   48 T=  4219. E= -.18173779E+03 F= -.19700779E+03 E0= -.19700779E+03  EK= 0.15270E+02 SP= 0.00E+00 SK= 0.00E+00 mag=      0.000
       N       E                     dE             d eps       ncg     rms          rms(c)
RMM:   1    -0.197006702087E+03    0.10858E-02   -0.18926E-04   313   0.123E-02    0.493E-04
RMM:   2    -0.197006702579E+03   -0.49211E-06   -0.52309E-06   260   0.441E-03    0.263E-04
RMM:   3    -0.197006702706E+03   -0.12716E-06   -0.10159E-06   196   0.214E-03    0.200E-04
RMM:   4    -0.197006702757E+03   -0.50295E-07   -0.21652E-07   164   0.165E-03
   49 T=  4219. E= -.18173797E+03 F= -.19700670E+03 E0= -.19700670E+03  EK= 0.15269E+02 SP= 0.00E+00 SK= 0.00E+00 mag=     -0.000
       N       E                     dE             d eps       ncg     rms          rms(c)
RMM:   1    -0.197005609600E+03    0.10931E-02   -0.13807E-04   311   0.114E-02    0.517E-04
RMM:   2    -0.197005610045E+03   -0.44530E-06   -0.45837E-06   254   0.421E-03    0.215E-04
RMM:   3    -0.197005610171E+03   -0.12645E-06   -0.10464E-06   194   0.214E-03    0.152E-04
RMM:   4    -0.197005610224E+03   -0.52089E-07   -0.25025E-07   165   0.171E-03
   50 T=  4218. E= -.18173791E+03 F= -.19700561E+03 E0= -.19700561E+03  EK= 0.15268E+02 SP= 0.00E+00 SK= 0.00E+00 mag=     -0.000
       N       E                     dE             d eps       ncg     rms          rms(c)
RMM:   1    -0.197004628859E+03    0.98131E-03   -0.24258E-04   319   0.136E-02    0.471E-04
RMM:   2    -0.197004629337E+03   -0.47853E-06   -0.51799E-06   266   0.452E-03    0.224E-04
RMM:   3    -0.197004629468E+03   -0.13121E-06   -0.11441E-06   198   0.209E-03    0.171E-04
RMM:   4    -0.197004629511E+03   -0.42577E-07   -0.23143E-07   160   0.161E-03
   51 T=  4218. E= -.18173796E+03 F= -.19700463E+03 E0= -.19700463E+03  EK= 0.15267E+02 SP= 0.00E+00 SK= 0.00E+00 mag=     -0.000
       N       E                     dE             d eps       ncg     rms          rms(c)
RMM:   1    -0.197003445910E+03    0.11836E-02   -0.30040E-04   324   0.142E-02    0.427E-04
RMM:   2    -0.197003446341E+03   -0.43142E-06   -0.47656E-06   254   0.428E-03    0.227E-04
RMM:   3    -0.197003446459E+03   -0.11786E-06   -0.10494E-06   195   0.212E-03    0.181E-04
RMM:   4    -0.197003446518E+03   -0.58784E-07   -0.24558E-07   166   0.167E-03
   52 T=  4218. E= -.18173781E+03 F= -.19700345E+03 E0= -.19700345E+03  EK= 0.15266E+02 SP= 0.00E+00 SK= 0.00E+00 mag=      0.000
       N       E                     dE             d eps       ncg     rms          rms(c)
RMM:   1    -0.197002542935E+03    0.90352E-03   -0.20040E-04   320   0.128E-02    0.425E-04
RMM:   2    -0.197002543433E+03   -0.49896E-06   -0.45229E-06   262   0.427E-03    0.200E-04
RMM:   3    -0.197002543565E+03   -0.13169E-06   -0.97914E-07   197   0.202E-03    0.139E-04
RMM:   4    -0.197002543612E+03   -0.46719E-07   -0.20388E-07   160   0.157E-03
   53 T=  4218. E= -.18173788E+03 F= -.19700254E+03 E0= -.19700254E+03  EK= 0.15265E+02 SP= 0.00E+00 SK= 0.00E+00 mag=      0.000
       N       E                     dE             d eps       ncg     rms          rms(c)
RMM:   1    -0.197000941852E+03    0.16017E-02   -0.20572E-04   319   0.129E-02    0.459E-04
RMM:   2    -0.197000942235E+03   -0.38229E-06   -0.45660E-06   249   0.424E-03    0.235E-04
RMM:   3    -0.197000942381E+03   -0.14675E-06   -0.10103E-06   194   0.209E-03    0.146E-04
RMM:   4    -0.197000942458E+03   -0.77018E-07   -0.22713E-07   162   0.163E-03
   54 T=  4217. E= -.18173758E+03 F= -.19700094E+03 E0= -.19700094E+03  EK= 0.15263E+02 SP= 0.00E+00 SK= 0.00E+00 mag=      0.000
       N       E                     dE             d eps       ncg     rms          rms(c)
RMM:   1    -0.196998936366E+03    0.20060E-02   -0.23050E-04   326   0.138E-02    0.505E-04
RMM:   2    -0.196998936882E+03   -0.51576E-06   -0.51649E-06   259   0.444E-03    0.234E-04
RMM:   3    -0.196998937010E+03   -0.12819E-06   -0.11397E-06   198   0.210E-03    0.150E-04
RMM:   4    -0.196998937057E+03   -0.46781E-07   -0.24193E-07   162   0.163E-03
   55 T=  4217. E= -.18173768E+03 F= -.19699894E+03 E0= -.19699894E+03  EK= 0.15261E+02 SP= 0.00E+00 SK= 0.00E+00 mag=     -0.000
       N       E                     dE             d eps       ncg     rms          rms(c)
RMM:   1    -0.196996576489E+03    0.23605E-02   -0.30672E-04   329   0.145E-02    0.568E-04
RMM:   2    -0.196996576900E+03   -0.41176E-06   -0.45972E-06   253   0.427E-03    0.235E-04
RMM:   3    -0.196996577022E+03   -0.12151E-06   -0.10047E-06   197   0.211E-03    0.173E-04
RMM:   4    -0.196996577065E+03   -0.43170E-07   -0.22384E-07   163   0.162E-03
   56 T=  4216. E= -.18173781E+03 F= -.19699658E+03 E0= -.19699658E+03  EK= 0.15259E+02 SP= 0.00E+00 SK= 0.00E+00 mag=     -0.000
       N       E                     dE             d eps       ncg     rms          rms(c)
RMM:   1    -0.196993776049E+03    0.28010E-02   -0.31551E-04   322   0.143E-02    0.539E-04
RMM:   2    -0.196993776478E+03   -0.42918E-06   -0.49011E-06   259   0.437E-03    0.241E-04
RMM:   3    -0.196993776610E+03   -0.13159E-06   -0.10081E-06   197   0.209E-03    0.159E-04
RMM:   4    -0.196993776658E+03   -0.48469E-07   -0.14818E-07   156   0.162E-03
   57 T=  4215. E= -.18173774E+03 F= -.19699378E+03 E0= -.19699378E+03  EK= 0.15256E+02 SP= 0.00E+00 SK= 0.00E+00 mag=     -0.000
       N       E                     dE             d eps       ncg     rms          rms(c)
RMM:   1    -0.196990541568E+03    0.32350E-02   -0.20979E-04   323   0.136E-02    0.611E-04
RMM:   2    -0.196990542016E+03   -0.44781E-06   -0.51649E-06   256   0.457E-03    0.244E-04
RMM:   3    -0.196990542171E+03   -0.15508E-06   -0.11814E-06   201   0.225E-03    0.173E-04
RMM:   4    -0.196990542228E+03   -0.56974E-07   -0.28541E-07   165   0.169E-03
   58 T=  4214. E= -.18173750E+03 F= -.19699054E+03 E0= -.19699054E+03  EK= 0.15253E+02 SP= 0.00E+00 SK= 0.00E+00 mag=      0.000
       N       E                     dE             d eps       ncg     rms          rms(c)
RMM:   1    -0.196987519638E+03    0.30225E-02   -0.22308E-04   310   0.130E-02    0.572E-04
RMM:   2    -0.196987520069E+03   -0.43114E-06   -0.48224E-06   253   0.436E-03    0.254E-04
RMM:   3    -0.196987520193E+03   -0.12321E-06   -0.11025E-06   201   0.217E-03    0.153E-04
RMM:   4    -0.196987520232E+03   -0.39041E-07   -0.20637E-07   160   0.166E-03
   59 T=  4214. E= -.18173740E+03 F= -.19698752E+03 E0= -.19698752E+03  EK= 0.15250E+02 SP= 0.00E+00 SK= 0.00E+00 mag=      0.000
       N       E                     dE             d eps       ncg     rms          rms(c)
RMM:   1    -0.196984469972E+03    0.30502E-02   -0.14478E-04   311   0.117E-02    0.590E-04
RMM:   2    -0.196984470437E+03   -0.46467E-06   -0.44899E-06   252   0.423E-03    0.238E-04
RMM:   3    -0.196984470577E+03   -0.14065E-06   -0.10432E-06   200   0.216E-03    0.159E-04
RMM:   4    -0.196984470631E+03   -0.53276E-07   -0.21267E-07   163   0.166E-03
   60 T=  4213. E= -.18173726E+03 F= -.19698447E+03 E0= -.19698447E+03  EK= 0.15247E+02 SP= 0.00E+00 SK= 0.00E+00 mag=      0.000
       N       E                     dE             d eps       ncg     rms          rms(c)
RMM:   1    -0.196981697874E+03    0.27727E-02   -0.14244E-04   312   0.115E-02    0.539E-04
RMM:   2    -0.196981698213E+03   -0.33990E-06   -0.40777E-06   257   0.417E-03    0.247E-04
RMM:   3    -0.196981698331E+03   -0.11732E-06   -0.92737E-07   194   0.211E-03    0.174E-04
RMM:   4    -0.196981698378E+03   -0.47110E-07   -0.20884E-07   160   0.163E-03
   61 T=  4212. E= -.18173715E+03 F= -.19698170E+03 E0= -.19698170E+03  EK= 0.15245E+02 SP= 0.00E+00 SK= 0.00E+00 mag=      0.000
       N       E                     dE             d eps       ncg     rms          rms(c)
RMM:   1    -0.196979459819E+03    0.22385E-02   -0.19647E-04   317   0.125E-02    0.558E-04
RMM:   2    -0.196979460243E+03   -0.42399E-06   -0.44211E-06   259   0.426E-03    0.236E-04
RMM:   3    -0.196979460360E+03   -0.11737E-06   -0.91995E-07   195   0.208E-03    0.165E-04
RMM:   4    -0.196979460398E+03   -0.38008E-07   -0.17468E-07   159   0.162E-03
   62 T=  4211. E= -.18173712E+03 F= -.19697946E+03 E0= -.19697946E+03  EK= 0.15242E+02 SP= 0.00E+00 SK= 0.00E+00 mag=      0.000
       N       E                     dE             d eps       ncg     rms          rms(c)
RMM:   1    -0.196977175282E+03    0.22851E-02   -0.26453E-04   319   0.138E-02    0.570E-04
RMM:   2    -0.196977175778E+03   -0.49546E-06   -0.49486E-06   259   0.442E-03    0.243E-04
RMM:   3    -0.196977175908E+03   -0.13012E-06   -0.11392E-06   203   0.225E-03    0.175E-04
RMM:   4    -0.196977175962E+03   -0.54422E-07   -0.24189E-07   166   0.169E-03
   63 T=  4211. E= -.18173697E+03 F= -.19697718E+03 E0= -.19697718E+03  EK= 0.15240E+02 SP= 0.00E+00 SK= 0.00E+00 mag=     -0.000
       N       E                     dE             d eps       ncg     rms          rms(c)
RMM:   1    -0.196975197997E+03    0.19779E-02   -0.21641E-04   320   0.137E-02    0.518E-04
RMM:   2    -0.196975198429E+03   -0.43217E-06   -0.53745E-06   263   0.466E-03    0.246E-04
RMM:   3    -0.196975198626E+03   -0.19717E-06   -0.12963E-06   204   0.228E-03    0.158E-04
RMM:   4    -0.196975198715E+03   -0.88618E-07   -0.30821E-07   169   0.174E-03
   64 T=  4210. E= -.18173689E+03 F= -.19697520E+03 E0= -.19697520E+03  EK= 0.15238E+02 SP= 0.00E+00 SK= 0.00E+00 mag=     -0.000
       N       E                     dE             d eps       ncg     rms          rms(c)
RMM:   1    -0.196973843900E+03    0.13547E-02   -0.21213E-04   324   0.135E-02    0.529E-04
RMM:   2    -0.196973844380E+03   -0.48019E-06   -0.47094E-06   256   0.433E-03    0.215E-04
RMM:   3    -0.196973844521E+03   -0.14153E-06   -0.10720E-06   197   0.213E-03    0.152E-04
RMM:   4    -0.196973844583E+03   -0.61409E-07   -0.25425E-07   165   0.165E-03
   65 T=  4210. E= -.18173702E+03 F= -.19697384E+03 E0= -.19697384E+03  EK= 0.15237E+02 SP= 0.00E+00 SK= 0.00E+00 mag=     -0.000
       N       E                     dE             d eps       ncg     rms          rms(c)
RMM:   1    -0.196972445031E+03    0.13995E-02   -0.28751E-04   327   0.148E-02    0.502E-04
RMM:   2    -0.196972445519E+03   -0.48768E-06   -0.53350E-06   258   0.457E-03    0.252E-04
RMM:   3    -0.196972445676E+03   -0.15681E-06   -0.11472E-06   193   0.221E-03    0.152E-04
RMM:   4    -0.196972445756E+03   -0.80410E-07   -0.32461E-07   171   0.174E-03
   66 T=  4210. E= -.18173697E+03 F= -.19697245E+03 E0= -.19697245E+03  EK= 0.15235E+02 SP= 0.00E+00 SK= 0.00E+00 mag=      0.000
       N       E                     dE             d eps       ncg     rms          rms(c)
RMM:   1    -0.196971255578E+03    0.11901E-02   -0.24406E-04   327   0.139E-02    0.536E-04
RMM:   2    -0.196971256039E+03   -0.46140E-06   -0.48775E-06   257   0.441E-03    0.238E-04
RMM:   3    -0.196971256171E+03   -0.13158E-06   -0.97998E-07   196   0.203E-03    0.141E-04
RMM:   4    -0.196971256228E+03   -0.57220E-07   -0.16430E-07   158   0.159E-03
   67 T=  4209. E= -.18173693E+03 F= -.19697126E+03 E0= -.19697126E+03  EK= 0.15234E+02 SP= 0.00E+00 SK= 0.00E+00 mag=      0.000
       N       E                     dE             d eps       ncg     rms          rms(c)
RMM:   1    -0.196970065989E+03    0.11902E-02   -0.19928E-04   313   0.127E-02    0.655E-04
RMM:   2    -0.196970066421E+03   -0.43119E-06   -0.48091E-06   257   0.436E-03    0.254E-04
RMM:   3    -0.196970066562E+03   -0.14094E-06   -0.11112E-06   202   0.219E-03    0.174E-04
RMM:   4    -0.196970066629E+03   -0.67685E-07   -0.26194E-07   167   0.167E-03
   68 T=  4209. E= -.18173691E+03 F= -.19697007E+03 E0= -.19697007E+03  EK= 0.15233E+02 SP= 0.00E+00 SK= 0.00E+00 mag=      0.000
       N       E                     dE             d eps       ncg     rms          rms(c)
RMM:   1    -0.196968380671E+03    0.16859E-02   -0.31969E-04   320   0.147E-02    0.613E-04
RMM:   2    -0.196968381177E+03   -0.50643E-06   -0.54203E-06   265   0.462E-03    0.259E-04
RMM:   3    -0.196968381299E+03   -0.12168E-06   -0.10667E-06   202   0.219E-03    0.168E-04
RMM:   4    -0.196968381385E+03   -0.86084E-07   -0.23738E-07   165   0.166E-03
   69 T=  4208. E= -.18173693E+03 F= -.19696838E+03 E0= -.19696838E+03  EK= 0.15231E+02 SP= 0.00E+00 SK= 0.00E+00 mag=     -0.000
       N       E                     dE             d eps       ncg     rms          rms(c)
RMM:   1    -0.196966443749E+03    0.19375E-02   -0.34330E-04   323   0.149E-02    0.595E-04
RMM:   2    -0.196966444149E+03   -0.39988E-06   -0.54808E-06   254   0.456E-03    0.272E-04
RMM:   3    -0.196966444317E+03   -0.16804E-06   -0.11103E-06   198   0.216E-03    0.183E-04
RMM:   4    -0.196966444406E+03   -0.88765E-07   -0.19847E-07   160   0.166E-03
   70 T=  4208. E= -.18173701E+03 F= -.19696644E+03 E0= -.19696644E+03  EK= 0.15229E+02 SP= 0.00E+00 SK= 0.00E+00 mag=     -0.000
       N       E                     dE             d eps       ncg     rms          rms(c)
RMM:   1    -0.196964162762E+03    0.22816E-02   -0.22493E-04   319   0.133E-02    0.674E-04
RMM:   2    -0.196964163182E+03   -0.41966E-06   -0.49061E-06   259   0.446E-03    0.291E-04
RMM:   3    -0.196964163360E+03   -0.17759E-06   -0.10911E-06   195   0.216E-03    0.193E-04
RMM:   4    -0.196964163417E+03   -0.57635E-07   -0.25454E-07   166   0.166E-03
   71 T=  4207. E= -.18173688E+03 F= -.19696416E+03 E0= -.19696416E+03  EK= 0.15227E+02 SP= 0.00E+00 SK= 0.00E+00 mag=     -0.000
       N       E                     dE             d eps       ncg     rms          rms(c)
RMM:   1    -0.196961384393E+03    0.27790E-02   -0.20202E-04   318   0.129E-02    0.700E-04
RMM:   2    -0.196961384726E+03   -0.33338E-06   -0.47125E-06   261   0.440E-03    0.269E-04
RMM:   3    -0.196961384883E+03   -0.15649E-06   -0.10423E-06   198   0.214E-03    0.192E-04
RMM:   4    -0.196961384965E+03   -0.82406E-07   -0.24611E-07   166   0.164E-03
   72 T=  4206. E= -.18173687E+03 F= -.19696138E+03 E0= -.19696138E+03  EK= 0.15225E+02 SP= 0.00E+00 SK= 0.00E+00 mag=      0.000
       N       E                     dE             d eps       ncg     rms          rms(c)
RMM:   1    -0.196958582704E+03    0.28022E-02   -0.21548E-04   315   0.128E-02    0.708E-04
RMM:   2    -0.196958583229E+03   -0.52517E-06   -0.48465E-06   263   0.435E-03    0.251E-04
RMM:   3    -0.196958583370E+03   -0.14107E-06   -0.98549E-07   197   0.208E-03    0.187E-04
RMM:   4    -0.196958583448E+03   -0.77882E-07   -0.18643E-07   163   0.162E-03
   73 T=  4206. E= -.18173706E+03 F= -.19695858E+03 E0= -.19695858E+03  EK= 0.15222E+02 SP= 0.00E+00 SK= 0.00E+00 mag=      0.000
       N       E                     dE             d eps       ncg     rms          rms(c)
RMM:   1    -0.196955865592E+03    0.27178E-02   -0.19024E-04   313   0.126E-02    0.626E-04
RMM:   2    -0.196955865937E+03   -0.34510E-06   -0.46015E-06   257   0.437E-03    0.237E-04
RMM:   3    -0.196955866111E+03   -0.17418E-06   -0.98894E-07   197   0.214E-03    0.150E-04
RMM:   4    -0.196955866186E+03   -0.74842E-07   -0.24104E-07   165   0.163E-03
   74 T=  4205. E= -.18173694E+03 F= -.19695587E+03 E0= -.19695587E+03  EK= 0.15219E+02 SP= 0.00E+00 SK= 0.00E+00 mag=      0.000
       N       E                     dE             d eps       ncg     rms          rms(c)
RMM:   1    -0.196953387484E+03    0.24786E-02   -0.15423E-04   315   0.120E-02    0.680E-04
RMM:   2    -0.196953387954E+03   -0.46967E-06   -0.48789E-06   263   0.443E-03    0.271E-04
RMM:   3    -0.196953388088E+03   -0.13440E-06   -0.10821E-06   196   0.214E-03    0.169E-04
RMM:   4    -0.196953388141E+03   -0.52947E-07   -0.23293E-07   164   0.166E-03
   75 T=  4204. E= -.18173694E+03 F= -.19695339E+03 E0= -.19695339E+03  EK= 0.15216E+02 SP= 0.00E+00 SK= 0.00E+00 mag=     -0.000
       N       E                     dE             d eps       ncg     rms          rms(c)
RMM:   1    -0.196950845535E+03    0.25426E-02   -0.14762E-04   318   0.119E-02    0.666E-04
RMM:   2    -0.196950846095E+03   -0.56032E-06   -0.49713E-06   259   0.439E-03    0.249E-04
RMM:   3    -0.196950846261E+03   -0.16649E-06   -0.10829E-06   201   0.220E-03    0.172E-04
RMM:   4    -0.196950846340E+03   -0.78346E-07   -0.21208E-07   164   0.168E-03
   76 T=  4204. E= -.18173681E+03 F= -.19695085E+03 E0= -.19695085E+03  EK= 0.15214E+02 SP= 0.00E+00 SK= 0.00E+00 mag=     -0.000
       N       E                     dE             d eps       ncg     rms          rms(c)
RMM:   1    -0.196948762150E+03    0.20841E-02   -0.18797E-04   321   0.130E-02    0.717E-04
RMM:   2    -0.196948762547E+03   -0.39638E-06   -0.49150E-06   264   0.444E-03    0.252E-04
RMM:   3    -0.196948762815E+03   -0.26831E-06   -0.10969E-06   201   0.214E-03    0.189E-04
RMM:   4    -0.196948762927E+03   -0.11184E-06   -0.23671E-07   166   0.164E-03
   77 T=  4203. E= -.18173693E+03 F= -.19694876E+03 E0= -.19694876E+03  EK= 0.15212E+02 SP= 0.00E+00 SK= 0.00E+00 mag=     -0.000
       N       E                     dE             d eps       ncg     rms          rms(c)
RMM:   1    -0.196946195367E+03    0.25674E-02   -0.22493E-04   328   0.139E-02    0.695E-04
RMM:   2    -0.196946195736E+03   -0.36933E-06   -0.48093E-06   262   0.448E-03    0.252E-04
RMM:   3    -0.196946195891E+03   -0.15506E-06   -0.10030E-06   191   0.209E-03    0.185E-04
RMM:   4    -0.196946195969E+03   -0.77987E-07   -0.27450E-07   168   0.167E-03
   78 T=  4202. E= -.18173665E+03 F= -.19694620E+03 E0= -.19694620E+03  EK= 0.15210E+02 SP= 0.00E+00 SK= 0.00E+00 mag=     -0.000
       N       E                     dE             d eps       ncg     rms          rms(c)
RMM:   1    -0.196943423855E+03    0.27720E-02   -0.28172E-04   333   0.147E-02    0.703E-04
RMM:   2    -0.196943424364E+03   -0.50900E-06   -0.54785E-06   265   0.465E-03    0.264E-04
RMM:   3    -0.196943424499E+03   -0.13492E-06   -0.10263E-06   199   0.210E-03    0.183E-04
RMM:   4    -0.196943424552E+03   -0.53244E-07   -0.18711E-07   159   0.162E-03
   79 T=  4202. E= -.18173675E+03 F= -.19694342E+03 E0= -.19694342E+03  EK= 0.15207E+02 SP= 0.00E+00 SK= 0.00E+00 mag=      0.000
       N       E                     dE             d eps       ncg     rms          rms(c)
RMM:   1    -0.196940523527E+03    0.29010E-02   -0.28174E-04   325   0.144E-02    0.796E-04
RMM:   2    -0.196940524027E+03   -0.49983E-06   -0.49668E-06   252   0.459E-03    0.266E-04
RMM:   3    -0.196940524273E+03   -0.24591E-06   -0.11136E-06   200   0.224E-03    0.163E-04
RMM:   4    -0.196940524410E+03   -0.13680E-06   -0.32538E-07   174   0.175E-03
   80 T=  4201. E= -.18173678E+03 F= -.19694052E+03 E0= -.19694052E+03  EK= 0.15204E+02 SP= 0.00E+00 SK= 0.00E+00 mag=      0.000
       N       E                     dE             d eps       ncg     rms          rms(c)
RMM:   1    -0.196937417368E+03    0.31069E-02   -0.22139E-04   317   0.134E-02    0.897E-04
RMM:   2    -0.196937417621E+03   -0.25240E-06   -0.49488E-06   260   0.448E-03    0.306E-04
RMM:   3    -0.196937417772E+03   -0.15117E-06   -0.99731E-07   198   0.212E-03    0.202E-04
RMM:   4    -0.196937417861E+03   -0.89118E-07   -0.17406E-07   160   0.165E-03
   81 T=  4200. E= -.18173662E+03 F= -.19693742E+03 E0= -.19693742E+03  EK= 0.15201E+02 SP= 0.00E+00 SK= 0.00E+00 mag=      0.000
       N       E                     dE             d eps       ncg     rms          rms(c)
RMM:   1    -0.196934149046E+03    0.32687E-02   -0.17789E-04   320   0.131E-02    0.101E-03
RMM:   2    -0.196934149540E+03   -0.49334E-06   -0.51105E-06   262   0.452E-03    0.258E-04
RMM:   3    -0.196934149700E+03   -0.16044E-06   -0.11333E-06   198   0.221E-03    0.193E-04
RMM:   4    -0.196934149773E+03   -0.72439E-07   -0.25436E-07   165   0.168E-03
   82 T=  4199. E= -.18173641E+03 F= -.19693415E+03 E0= -.19693415E+03  EK= 0.15198E+02 SP= 0.00E+00 SK= 0.00E+00 mag=      0.000
       N       E                     dE             d eps       ncg     rms          rms(c)
RMM:   1    -0.196931351794E+03    0.27979E-02   -0.17464E-04   315   0.126E-02    0.107E-03
RMM:   2    -0.196931352282E+03   -0.48728E-06   -0.48002E-06   261   0.449E-03    0.251E-04
RMM:   3    -0.196931352462E+03   -0.17994E-06   -0.11883E-06   205   0.225E-03    0.203E-04
RMM:   4    -0.196931352521E+03   -0.59539E-07   -0.27207E-07   166   0.170E-03
   83 T=  4198. E= -.18173629E+03 F= -.19693135E+03 E0= -.19693135E+03  EK= 0.15195E+02 SP= 0.00E+00 SK= 0.00E+00 mag=     -0.000
       N       E                     dE             d eps       ncg     rms          rms(c)
RMM:   1    -0.196928838475E+03    0.25140E-02   -0.22610E-04   315   0.133E-02    0.102E-03
RMM:   2    -0.196928838791E+03   -0.31562E-06   -0.52595E-06   259   0.455E-03    0.228E-04
RMM:   3    -0.196928838987E+03   -0.19645E-06   -0.11420E-06   204   0.223E-03    0.199E-04
RMM:   4    -0.196928839132E+03   -0.14505E-06   -0.17534E-07   161   0.166E-03
   84 T=  4198. E= -.18173618E+03 F= -.19692884E+03 E0= -.19692884E+03  EK= 0.15193E+02 SP= 0.00E+00 SK= 0.00E+00 mag=     -0.000
       N       E                     dE             d eps       ncg     rms          rms(c)
RMM:   1    -0.196926855925E+03    0.19831E-02   -0.15239E-04   321   0.120E-02    0.684E-04
RMM:   2    -0.196926856372E+03   -0.44760E-06   -0.43734E-06   257   0.414E-03    0.227E-04
RMM:   3    -0.196926856550E+03   -0.17725E-06   -0.91559E-07   194   0.213E-03    0.148E-04
RMM:   4    -0.196926856657E+03   -0.10786E-06   -0.16268E-07   159   0.165E-03
   85 T=  4197. E= -.18173608E+03 F= -.19692686E+03 E0= -.19692686E+03  EK= 0.15191E+02 SP= 0.00E+00 SK= 0.00E+00 mag=     -0.000
       N       E                     dE             d eps       ncg     rms          rms(c)
RMM:   1    -0.196925690487E+03    0.11661E-02   -0.21335E-04   320   0.135E-02    0.628E-04
RMM:   2    -0.196925690859E+03   -0.37161E-06   -0.50604E-06   262   0.467E-03    0.226E-04
RMM:   3    -0.196925691021E+03   -0.16248E-06   -0.12327E-06   203   0.227E-03    0.191E-04
RMM:   4    -0.196925691111E+03   -0.89694E-07   -0.30870E-07   168   0.172E-03
   86 T=  4197. E= -.18173605E+03 F= -.19692569E+03 E0= -.19692569E+03  EK= 0.15190E+02 SP= 0.00E+00 SK= 0.00E+00 mag=      0.000
       N       E                     dE             d eps       ncg     rms          rms(c)
RMM:   1    -0.196924786763E+03    0.90426E-03   -0.18082E-04   316   0.127E-02    0.651E-04
RMM:   2    -0.196924787252E+03   -0.48877E-06   -0.47075E-06   255   0.428E-03    0.252E-04
RMM:   3    -0.196924787498E+03   -0.24578E-06   -0.12102E-06   206   0.226E-03    0.167E-04
RMM:   4    -0.196924787687E+03   -0.18956E-06   -0.25123E-07   166   0.170E-03
   87 T=  4197. E= -.18173594E+03 F= -.19692479E+03 E0= -.19692479E+03  EK= 0.15189E+02 SP= 0.00E+00 SK= 0.00E+00 mag=      0.000
       N       E                     dE             d eps       ncg     rms          rms(c)
RMM:   1    -0.196924439982E+03    0.34752E-03   -0.22077E-04   323   0.136E-02    0.727E-04
RMM:   2    -0.196924440147E+03   -0.16516E-06   -0.47480E-06   260   0.433E-03    0.233E-04
RMM:   3    -0.196924440472E+03   -0.32467E-06   -0.95566E-07   198   0.204E-03    0.159E-04
RMM:   4    -0.196924440659E+03   -0.18669E-06   -0.14724E-07   159   0.158E-03
   88 T=  4197. E= -.18173589E+03 F= -.19692444E+03 E0= -.19692444E+03  EK= 0.15189E+02 SP= 0.00E+00 SK= 0.00E+00 mag=      0.000
       N       E                     dE             d eps       ncg     rms          rms(c)
RMM:   1    -0.196924964310E+03   -0.52384E-03   -0.24791E-04   321   0.140E-02    0.781E-04
RMM:   2    -0.196924964502E+03   -0.19270E-06   -0.48532E-06   260   0.450E-03    0.268E-04
RMM:   3    -0.196924964702E+03   -0.19940E-06   -0.11314E-06   200   0.226E-03    0.157E-04
RMM:   4    -0.196924964763E+03   -0.61271E-07   -0.23961E-07   166   0.175E-03
   89 T=  4197. E= -.18173603E+03 F= -.19692496E+03 E0= -.19692496E+03  EK= 0.15189E+02 SP= 0.00E+00 SK= 0.00E+00 mag=     -0.000
       N       E                     dE             d eps       ncg     rms          rms(c)
RMM:   1    -0.196925696754E+03   -0.73205E-03   -0.23136E-04   323   0.140E-02    0.836E-04
RMM:   2    -0.196925697125E+03   -0.37053E-06   -0.46573E-06   259   0.453E-03    0.224E-04
RMM:   3    -0.196925697290E+03   -0.16540E-06   -0.10998E-06   204   0.223E-03    0.199E-04
RMM:   4    -0.196925697359E+03   -0.68470E-07   -0.28101E-07   167   0.169E-03
   90 T=  4197. E= -.18173601E+03 F= -.19692570E+03 E0= -.19692570E+03  EK= 0.15190E+02 SP= 0.00E+00 SK= 0.00E+00 mag=     -0.000
       N       E                     dE             d eps       ncg     rms          rms(c)
RMM:   1    -0.196926856826E+03   -0.11595E-02   -0.28565E-04   321   0.145E-02    0.805E-04
RMM:   2    -0.196926857257E+03   -0.43046E-06   -0.49486E-06   261   0.439E-03    0.252E-04
RMM:   3    -0.196926857416E+03   -0.15958E-06   -0.11945E-06   203   0.218E-03    0.154E-04
RMM:   4    -0.196926857477E+03   -0.60729E-07   -0.25073E-07   162   0.165E-03
   91 T=  4197. E= -.18173600E+03 F= -.19692686E+03 E0= -.19692686E+03  EK= 0.15191E+02 SP= 0.00E+00 SK= 0.00E+00 mag=     -0.000
       N       E                     dE             d eps       ncg     rms          rms(c)
RMM:   1    -0.196928228046E+03   -0.13706E-02   -0.33106E-04   327   0.155E-02    0.871E-04
RMM:   2    -0.196928228448E+03   -0.40170E-06   -0.52586E-06   260   0.458E-03    0.222E-04
RMM:   3    -0.196928228620E+03   -0.17191E-06   -0.11905E-06   201   0.220E-03    0.178E-04
RMM:   4    -0.196928228685E+03   -0.65405E-07   -0.25736E-07   163   0.169E-03
   92 T=  4198. E= -.18173603E+03 F= -.19692823E+03 E0= -.19692823E+03  EK= 0.15192E+02 SP= 0.00E+00 SK= 0.00E+00 mag=      0.000
       N       E                     dE             d eps       ncg     rms          rms(c)
RMM:   1    -0.196929275526E+03   -0.10469E-02   -0.22733E-04   325   0.142E-02    0.941E-04
RMM:   2    -0.196929275942E+03   -0.41637E-06   -0.46410E-06   261   0.442E-03    0.239E-04
RMM:   3    -0.196929276122E+03   -0.17961E-06   -0.10936E-06   201   0.219E-03    0.216E-04
RMM:   4    -0.196929276217E+03   -0.95359E-07   -0.23260E-07   164   0.165E-03
   93 T=  4198. E= -.18173597E+03 F= -.19692928E+03 E0= -.19692928E+03  EK= 0.15193E+02 SP= 0.00E+00 SK= 0.00E+00 mag=      0.000
       N       E                     dE             d eps       ncg     rms          rms(c)
RMM:   1    -0.196930174972E+03   -0.89885E-03   -0.26896E-04   319   0.143E-02    0.819E-04
RMM:   2    -0.196930175382E+03   -0.41030E-06   -0.50993E-06   260   0.456E-03    0.245E-04
RMM:   3    -0.196930175521E+03   -0.13878E-06   -0.11380E-06   194   0.223E-03    0.174E-04
RMM:   4    -0.196930175591E+03   -0.70495E-07   -0.29802E-07   168   0.173E-03
   94 T=  4198. E= -.18173596E+03 F= -.19693018E+03 E0= -.19693018E+03  EK= 0.15194E+02 SP= 0.00E+00 SK= 0.00E+00 mag=      0.000
       N       E                     dE             d eps       ncg     rms          rms(c)
RMM:   1    -0.196930821799E+03   -0.64628E-03   -0.19192E-04   322   0.127E-02    0.832E-04
RMM:   2    -0.196930822326E+03   -0.52739E-06   -0.51638E-06   258   0.450E-03    0.242E-04
RMM:   3    -0.196930822470E+03   -0.14311E-06   -0.11636E-06   206   0.219E-03    0.214E-04
RMM:   4    -0.196930822514E+03   -0.44864E-07   -0.20688E-07   160   0.166E-03
   95 T=  4198. E= -.18173585E+03 F= -.19693082E+03 E0= -.19693082E+03  EK= 0.15195E+02 SP= 0.00E+00 SK= 0.00E+00 mag=      0.000
       N       E                     dE             d eps       ncg     rms          rms(c)
RMM:   1    -0.196931053394E+03   -0.23092E-03   -0.14942E-04   314   0.121E-02    0.759E-04
RMM:   2    -0.196931053767E+03   -0.37269E-06   -0.44346E-06   259   0.429E-03    0.223E-04
RMM:   3    -0.196931053912E+03   -0.14511E-06   -0.10926E-06   195   0.218E-03    0.157E-04
RMM:   4    -0.196931053960E+03   -0.48067E-07   -0.30612E-07   168   0.171E-03
   96 T=  4198. E= -.18173582E+03 F= -.19693105E+03 E0= -.19693105E+03  EK= 0.15195E+02 SP= 0.00E+00 SK= 0.00E+00 mag=     -0.000
       N       E                     dE             d eps       ncg     rms          rms(c)
RMM:   1    -0.196931280844E+03   -0.22693E-03   -0.20261E-04   317   0.128E-02    0.778E-04
RMM:   2    -0.196931281304E+03   -0.46031E-06   -0.50556E-06   261   0.444E-03    0.243E-04
RMM:   3    -0.196931281419E+03   -0.11455E-06   -0.10294E-06   200   0.210E-03    0.186E-04
RMM:   4    -0.196931281449E+03   -0.30170E-07   -0.15692E-07   154   0.160E-03
   97 T=  4198. E= -.18173590E+03 F= -.19693128E+03 E0= -.19693128E+03  EK= 0.15195E+02 SP= 0.00E+00 SK= 0.00E+00 mag=     -0.000
       N       E                     dE             d eps       ncg     rms          rms(c)
RMM:   1    -0.196931595571E+03   -0.31415E-03   -0.25239E-04   326   0.138E-02    0.857E-04
RMM:   2    -0.196931595932E+03   -0.36037E-06   -0.48934E-06   264   0.442E-03    0.242E-04
RMM:   3    -0.196931596078E+03   -0.14645E-06   -0.10107E-06   192   0.209E-03    0.191E-04
RMM:   4    -0.196931596167E+03   -0.88789E-07   -0.21695E-07   162   0.164E-03
   98 T=  4199. E= -.18173573E+03 F= -.19693160E+03 E0= -.19693160E+03  EK= 0.15196E+02 SP= 0.00E+00 SK= 0.00E+00 mag=     -0.000
       N       E                     dE             d eps       ncg     rms          rms(c)
RMM:   1    -0.196932129345E+03   -0.53327E-03   -0.23203E-04   327   0.135E-02    0.924E-04
RMM:   2    -0.196932129609E+03   -0.26461E-06   -0.47263E-06   256   0.444E-03    0.269E-04
RMM:   3    -0.196932129807E+03   -0.19739E-06   -0.10856E-06   197   0.218E-03    0.219E-04
RMM:   4    -0.196932129920E+03   -0.11375E-06   -0.24286E-07   165   0.169E-03
   99 T=  4199. E= -.18173560E+03 F= -.19693213E+03 E0= -.19693213E+03  EK= 0.15197E+02 SP= 0.00E+00 SK= 0.00E+00 mag=      0.000
       N       E                     dE             d eps       ncg     rms          rms(c)
RMM:   1    -0.196932526919E+03   -0.39711E-03   -0.17901E-04   328   0.132E-02    0.997E-04
RMM:   2    -0.196932527319E+03   -0.39976E-06   -0.45932E-06   262   0.445E-03    0.293E-04
RMM:   3    -0.196932527439E+03   -0.11987E-06   -0.10355E-06   193   0.218E-03    0.306E-04
RMM:   4    -0.196932527487E+03   -0.48767E-07   -0.23697E-07   165   0.169E-03
  100 T=  4199. E= -.18173534E+03 F= -.19693253E+03 E0= -.19693253E+03  EK= 0.15197E+02 SP= 0.00E+00 SK= 0.00E+00 mag=      0.000
       N       E                     dE             d eps       ncg     rms          rms(c)
RMM:   1    -0.196933282755E+03   -0.75532E-03   -0.22387E-04   323   0.138E-02    0.111E-03
RMM:   2    -0.196933283449E+03   -0.69389E-06   -0.57060E-06   265   0.481E-03    0.251E-04
RMM:   3    -0.196933283676E+03   -0.22750E-06   -0.13160E-06   210   0.233E-03    0.223E-04
RMM:   4    -0.196933283768E+03   -0.92394E-07   -0.34567E-07   173   0.170E-03
  101 T=  4199. E= -.18173547E+03 F= -.19693328E+03 E0= -.19693328E+03  EK= 0.15198E+02 SP= 0.00E+00 SK= 0.00E+00 mag=      0.000
       N       E                     dE             d eps       ncg     rms          rms(c)
RMM:   1    -0.196933443364E+03   -0.15969E-03   -0.24047E-04   324   0.138E-02    0.991E-04
RMM:   2    -0.196933443647E+03   -0.28287E-06   -0.49138E-06   256   0.441E-03    0.306E-04
RMM:   3    -0.196933443821E+03   -0.17382E-06   -0.11903E-06   209   0.222E-03    0.207E-04
RMM:   4    -0.196933443944E+03   -0.12302E-06   -0.18864E-07   161   0.166E-03
  102 T=  4199. E= -.18173523E+03 F= -.19693344E+03 E0= -.19693344E+03  EK= 0.15198E+02 SP= 0.00E+00 SK= 0.00E+00 mag=      0.000
       N       E                     dE             d eps       ncg     rms          rms(c)
RMM:   1    -0.196933204481E+03    0.23934E-03   -0.21707E-04   331   0.139E-02    0.943E-04
RMM:   2    -0.196933205011E+03   -0.53020E-06   -0.48565E-06   256   0.440E-03    0.240E-04
RMM:   3    -0.196933205149E+03   -0.13730E-06   -0.12313E-06   195   0.225E-03    0.161E-04
RMM:   4    -0.196933205210E+03   -0.61642E-07   -0.33009E-07   169   0.174E-03
  103 T=  4199. E= -.18173540E+03 F= -.19693321E+03 E0= -.19693321E+03  EK= 0.15198E+02 SP= 0.00E+00 SK= 0.00E+00 mag=     -0.000
       N       E                     dE             d eps       ncg     rms          rms(c)
RMM:   1    -0.196932604553E+03    0.60060E-03   -0.26967E-04   334   0.144E-02    0.115E-03
RMM:   2    -0.196932604969E+03   -0.41604E-06   -0.56466E-06   265   0.474E-03    0.238E-04
RMM:   3    -0.196932605122E+03   -0.15364E-06   -0.12220E-06   202   0.222E-03    0.235E-04
RMM:   4    -0.196932605187E+03   -0.64550E-07   -0.30888E-07   170   0.166E-03
  104 T=  4199. E= -.18173549E+03 F= -.19693261E+03 E0= -.19693261E+03  EK= 0.15197E+02 SP= 0.00E+00 SK= 0.00E+00 mag=     -0.000
       N       E                     dE             d eps       ncg     rms          rms(c)
RMM:   1    -0.196931552562E+03    0.10526E-02   -0.21715E-04   314   0.133E-02    0.116E-03
RMM:   2    -0.196931553004E+03   -0.44206E-06   -0.51810E-06   264   0.452E-03    0.259E-04
RMM:   3    -0.196931553190E+03   -0.18678E-06   -0.12841E-06   206   0.230E-03    0.288E-04
RMM:   4    -0.196931553266E+03   -0.75532E-07   -0.27906E-07   167   0.170E-03
  105 T=  4199. E= -.18173536E+03 F= -.19693155E+03 E0= -.19693155E+03  EK= 0.15196E+02 SP= 0.00E+00 SK= 0.00E+00 mag=     -0.000
       N       E                     dE             d eps       ncg     rms          rms(c)
RMM:   1    -0.196930079613E+03    0.14736E-02   -0.25832E-04   326   0.144E-02    0.103E-03
RMM:   2    -0.196930080001E+03   -0.38835E-06   -0.52528E-06   254   0.461E-03    0.374E-04
RMM:   3    -0.196930080169E+03   -0.16797E-06   -0.13727E-06   216   0.238E-03    0.203E-04
RMM:   4    -0.196930080265E+03   -0.96221E-07   -0.31677E-07   166   0.172E-03
  106 T=  4198. E= -.18173519E+03 F= -.19693008E+03 E0= -.19693008E+03  EK= 0.15195E+02 SP= 0.00E+00 SK= 0.00E+00 mag=      0.000
       N       E                     dE             d eps       ncg     rms          rms(c)
RMM:   1    -0.196928753983E+03    0.13262E-02   -0.20424E-04   322   0.133E-02    0.123E-03
RMM:   2    -0.196928754456E+03   -0.47265E-06   -0.53080E-06   264   0.460E-03    0.304E-04
RMM:   3    -0.196928754563E+03   -0.10735E-06   -0.12375E-06   198   0.226E-03    0.278E-04
RMM:   4    -0.196928754635E+03   -0.71894E-07   -0.31179E-07   165   0.172E-03
  107 T=  4198. E= -.18173507E+03 F= -.19692875E+03 E0= -.19692875E+03  EK= 0.15194E+02 SP= 0.00E+00 SK= 0.00E+00 mag=      0.000
       N       E                     dE             d eps       ncg     rms          rms(c)
RMM:   1    -0.196927479366E+03    0.12752E-02   -0.35972E-04   329   0.156E-02    0.110E-03
RMM:   2    -0.196927479792E+03   -0.42589E-06   -0.56060E-06   258   0.467E-03    0.331E-04
RMM:   3    -0.196927479930E+03   -0.13728E-06   -0.12521E-06   203   0.231E-03    0.228E-04
RMM:   4    -0.196927480058E+03   -0.12814E-06   -0.31119E-07   171   0.174E-03
  108 T=  4198. E= -.18173501E+03 F= -.19692748E+03 E0= -.19692748E+03  EK= 0.15192E+02 SP= 0.00E+00 SK= 0.00E+00 mag=      0.000
       N       E                     dE             d eps       ncg     rms          rms(c)
RMM:   1    -0.196926371959E+03    0.11080E-02   -0.28680E-04   323   0.147E-02    0.131E-03
RMM:   2    -0.196926372406E+03   -0.44672E-06   -0.52574E-06   266   0.470E-03    0.282E-04
RMM:   3    -0.196926372517E+03   -0.11124E-06   -0.12801E-06   203   0.227E-03    0.261E-04
RMM:   4    -0.196926372655E+03   -0.13812E-06   -0.32517E-07   169   0.167E-03
  109 T=  4197. E= -.18173491E+03 F= -.19692637E+03 E0= -.19692637E+03  EK= 0.15191E+02 SP= 0.00E+00 SK= 0.00E+00 mag=     -0.000
       N       E                     dE             d eps       ncg     rms          rms(c)
RMM:   1    -0.196925749885E+03    0.62263E-03   -0.26442E-04   337   0.151E-02    0.140E-03
RMM:   2    -0.196925750078E+03   -0.19268E-06   -0.58362E-06   261   0.496E-03    0.261E-04
RMM:   3    -0.196925750305E+03   -0.22700E-06   -0.13040E-06   205   0.231E-03    0.251E-04
RMM:   4    -0.196925750461E+03   -0.15623E-06   -0.29612E-07   168   0.170E-03
  110 T=  4197. E= -.18173490E+03 F= -.19692575E+03 E0= -.19692575E+03  EK= 0.15191E+02 SP= 0.00E+00 SK= 0.00E+00 mag=     -0.000
       N       E                     dE             d eps       ncg     rms          rms(c)
RMM:   1    -0.196925096998E+03    0.65331E-03   -0.26491E-04   328   0.149E-02    0.142E-03
RMM:   2    -0.196925097577E+03   -0.57876E-06   -0.63335E-06   265   0.504E-03    0.239E-04
RMM:   3    -0.196925097767E+03   -0.18999E-06   -0.14808E-06   220   0.246E-03    0.331E-04
RMM:   4    -0.196925097856E+03   -0.89482E-07   -0.33099E-07   171   0.172E-03
  111 T=  4197. E= -.18173483E+03 F= -.19692510E+03 E0= -.19692510E+03  EK= 0.15190E+02 SP= 0.00E+00 SK= 0.00E+00 mag=     -0.000
       N       E                     dE             d eps       ncg     rms          rms(c)
RMM:   1    -0.196924661098E+03    0.43667E-03   -0.19416E-04   332   0.134E-02    0.133E-03
RMM:   2    -0.196924661427E+03   -0.32968E-06   -0.47438E-06   260   0.436E-03    0.267E-04
RMM:   3    -0.196924661581E+03   -0.15415E-06   -0.12227E-06   201   0.220E-03    0.165E-04
RMM:   4    -0.196924661659E+03   -0.77278E-07   -0.30153E-07   169   0.168E-03
  112 T=  4197. E= -.18173480E+03 F= -.19692466E+03 E0= -.19692466E+03  EK= 0.15190E+02 SP= 0.00E+00 SK= 0.00E+00 mag=     -0.000
       N       E                     dE             d eps       ncg     rms          rms(c)
RMM:   1    -0.196924740538E+03   -0.78957E-04   -0.22967E-04   326   0.140E-02    0.163E-03
RMM:   2    -0.196924740907E+03   -0.36945E-06   -0.49915E-06   263   0.460E-03    0.227E-04
RMM:   3    -0.196924741049E+03   -0.14136E-06   -0.11955E-06   207   0.224E-03    0.204E-04
RMM:   4    -0.196924741127E+03   -0.77869E-07   -0.28003E-07   165   0.164E-03
  113 T=  4197. E= -.18173497E+03 F= -.19692474E+03 E0= -.19692474E+03  EK= 0.15190E+02 SP= 0.00E+00 SK= 0.00E+00 mag=      0.000
       N       E                     dE             d eps       ncg     rms          rms(c)
RMM:   1    -0.196924713309E+03    0.27740E-04   -0.31362E-04   337   0.158E-02    0.189E-03
RMM:   2    -0.196924713677E+03   -0.36775E-06   -0.57420E-06   271   0.505E-03    0.259E-04
RMM:   3    -0.196924713916E+03   -0.23979E-06   -0.12305E-06   215   0.228E-03    0.365E-04
RMM:   4    -0.196924714054E+03   -0.13766E-06   -0.25156E-07   165   0.158E-03
  114 T=  4197. E= -.18173497E+03 F= -.19692471E+03 E0= -.19692471E+03  EK= 0.15190E+02 SP= 0.00E+00 SK= 0.00E+00 mag=      0.000
       N       E                     dE             d eps       ncg     rms          rms(c)
RMM:   1    -0.196924812586E+03   -0.98670E-04   -0.38100E-04   331   0.159E-02    0.175E-03
RMM:   2    -0.196924812879E+03   -0.29210E-06   -0.55227E-06   259   0.480E-03    0.355E-04
RMM:   3    -0.196924813177E+03   -0.29809E-06   -0.13035E-06   216   0.238E-03    0.282E-04
RMM:   4    -0.196924813333E+03   -0.15602E-06   -0.25466E-07   167   0.166E-03
  115 T=  4197. E= -.18173499E+03 F= -.19692481E+03 E0= -.19692481E+03  EK= 0.15190E+02 SP= 0.00E+00 SK= 0.00E+00 mag=      0.000
       N       E                     dE             d eps       ncg     rms          rms(c)
RMM:   1    -0.196924842405E+03   -0.29228E-04   -0.35835E-04   334   0.163E-02    0.178E-03
RMM:   2    -0.196924842531E+03   -0.12604E-06   -0.54488E-06   268   0.481E-03    0.251E-04
RMM:   3    -0.196924842673E+03   -0.14286E-06   -0.13196E-06   207   0.237E-03    0.295E-04
RMM:   4    -0.196924842827E+03   -0.15320E-06   -0.35408E-07   174   0.173E-03
  116 T=  4197. E= -.18173510E+03 F= -.19692484E+03 E0= -.19692484E+03  EK= 0.15190E+02 SP= 0.00E+00 SK= 0.00E+00 mag=      0.000
       N       E                     dE             d eps       ncg     rms          rms(c)
RMM:   1    -0.196924265257E+03    0.57742E-03   -0.30072E-04   324   0.153E-02    0.208E-03
RMM:   2    -0.196924265824E+03   -0.56633E-06   -0.56206E-06   266   0.506E-03    0.258E-04
RMM:   3    -0.196924266152E+03   -0.32852E-06   -0.14186E-06   219   0.245E-03    0.360E-04
RMM:   4    -0.196924266297E+03   -0.14491E-06   -0.34349E-07   174   0.168E-03
  117 T=  4197. E= -.18173513E+03 F= -.19692427E+03 E0= -.19692427E+03  EK= 0.15189E+02 SP= 0.00E+00 SK= 0.00E+00 mag=     -0.000
       N       E                     dE             d eps       ncg     rms          rms(c)
RMM:   1    -0.196923237337E+03    0.10288E-02   -0.34407E-04   334   0.159E-02    0.177E-03
RMM:   2    -0.196923237469E+03   -0.13178E-06   -0.56087E-06   263   0.482E-03    0.318E-04
RMM:   3    -0.196923237717E+03   -0.24854E-06   -0.12395E-06   209   0.236E-03    0.268E-04
RMM:   4    -0.196923237914E+03   -0.19637E-06   -0.30709E-07   173   0.171E-03
  118 T=  4196. E= -.18173516E+03 F= -.19692324E+03 E0= -.19692324E+03  EK= 0.15188E+02 SP= 0.00E+00 SK= 0.00E+00 mag=     -0.000
       N       E                     dE             d eps       ncg     rms          rms(c)
RMM:   1    -0.196921686196E+03    0.15515E-02   -0.34530E-04   328   0.161E-02    0.192E-03
RMM:   2    -0.196921686625E+03   -0.42930E-06   -0.63506E-06   271   0.523E-03    0.286E-04
RMM:   3    -0.196921686834E+03   -0.20862E-06   -0.13833E-06   220   0.242E-03    0.453E-04
RMM:   4    -0.196921686929E+03   -0.95524E-07   -0.26545E-07   167   0.161E-03
  119 T=  4196. E= -.18173507E+03 F= -.19692169E+03 E0= -.19692169E+03  EK= 0.15187E+02 SP= 0.00E+00 SK= 0.00E+00 mag=     -0.000
       N       E                     dE             d eps       ncg     rms          rms(c)
RMM:   1    -0.196919504090E+03    0.21827E-02   -0.22109E-04   323   0.142E-02    0.184E-03
RMM:   2    -0.196919504502E+03   -0.41231E-06   -0.58304E-06   259   0.486E-03    0.404E-04
RMM:   3    -0.196919504662E+03   -0.15999E-06   -0.14241E-06   216   0.248E-03    0.213E-04
RMM:   4    -0.196919504732E+03   -0.69664E-07   -0.39570E-07   180   0.183E-03
  120 T=  4195. E= -.18173495E+03 F= -.19691950E+03 E0= -.19691950E+03  EK= 0.15185E+02 SP= 0.00E+00 SK= 0.00E+00 mag=      0.000
       N       E                     dE             d eps       ncg     rms          rms(c)
RMM:   1    -0.196917129742E+03    0.23749E-02   -0.24261E-04   327   0.150E-02    0.246E-03
RMM:   2    -0.196917130034E+03   -0.29156E-06   -0.60039E-06   270   0.521E-03    0.279E-04
RMM:   3    -0.196917130251E+03   -0.21712E-06   -0.14695E-06   223   0.247E-03    0.363E-04
RMM:   4    -0.196917130316E+03   -0.64689E-07   -0.30299E-07   169   0.165E-03
  121 T=  4195. E= -.18173481E+03 F= -.19691713E+03 E0= -.19691713E+03  EK= 0.15182E+02 SP= 0.00E+00 SK= 0.00E+00 mag=      0.000
       N       E                     dE             d eps       ncg     rms          rms(c)
RMM:   1    -0.196914694811E+03    0.24354E-02   -0.52591E-04   352   0.194E-02    0.262E-03
RMM:   2    -0.196914695159E+03   -0.34803E-06   -0.69467E-06   275   0.552E-03    0.305E-04
RMM:   3    -0.196914695432E+03   -0.27283E-06   -0.14414E-06   223   0.252E-03    0.423E-04
RMM:   4    -0.196914695606E+03   -0.17392E-06   -0.30584E-07   169   0.164E-03
  122 T=  4194. E= -.18173457E+03 F= -.19691470E+03 E0= -.19691470E+03  EK= 0.15180E+02 SP= 0.00E+00 SK= 0.00E+00 mag=      0.000
       N       E                     dE             d eps       ncg     rms          rms(c)
RMM:   1    -0.196912331415E+03    0.23640E-02   -0.52658E-04   340   0.184E-02    0.223E-03
RMM:   2    -0.196912331866E+03   -0.45056E-06   -0.67281E-06   268   0.513E-03    0.832E-04
RMM:   3    -0.196912332063E+03   -0.19682E-06   -0.15523E-06   215   0.256E-03    0.323E-04
RMM:   4    -0.196912332309E+03   -0.24660E-06   -0.53072E-07   196   0.203E-03
  123 T=  4194. E= -.18173440E+03 F= -.19691233E+03 E0= -.19691233E+03  EK= 0.15178E+02 SP= 0.00E+00 SK= 0.00E+00 mag=     -0.000
       N       E                     dE             d eps       ncg     rms          rms(c)
RMM:   1    -0.196909787419E+03    0.25446E-02   -0.29590E-04   342   0.165E-02    0.299E-03
RMM:   2    -0.196909787524E+03   -0.10483E-06   -0.71454E-06   274   0.566E-03    0.408E-04
RMM:   3    -0.196909787844E+03   -0.31994E-06   -0.16784E-06   232   0.269E-03    0.398E-04
RMM:   4    -0.196909788009E+03   -0.16546E-06   -0.28720E-07   168   0.168E-03
  124 T=  4193. E= -.18173417E+03 F= -.19690979E+03 E0= -.19690979E+03  EK= 0.15176E+02 SP= 0.00E+00 SK= 0.00E+00 mag=     -0.000
       N       E                     dE             d eps       ncg     rms          rms(c)
RMM:   1    -0.196907485982E+03    0.23019E-02   -0.30500E-04   330   0.160E-02    0.257E-03
RMM:   2    -0.196907486541E+03   -0.55884E-06   -0.69773E-06   272   0.549E-03    0.434E-04
RMM:   3    -0.196907487004E+03   -0.46335E-06   -0.17086E-06   222   0.264E-03    0.271E-04
RMM:   4    -0.196907487294E+03   -0.28998E-06   -0.42867E-07   181   0.183E-03
  125 T=  4192. E= -.18173425E+03 F= -.19690749E+03 E0= -.19690749E+03  EK= 0.15173E+02 SP= 0.00E+00 SK= 0.00E+00 mag=     -0.000
       N       E                     dE             d eps       ncg     rms          rms(c)
RMM:   1    -0.196904634530E+03    0.28525E-02   -0.29931E-04   338   0.163E-02    0.268E-03
RMM:   2    -0.196904634424E+03    0.10554E-06   -0.71795E-06   273   0.565E-03    0.328E-04
RMM:   3    -0.196904634867E+03   -0.44254E-06   -0.17401E-06   234   0.266E-03    0.610E-04
RMM:   4    -0.196904635209E+03   -0.34223E-06   -0.35423E-07   175   0.164E-03
  126 T=  4192. E= -.18173388E+03 F= -.19690464E+03 E0= -.19690464E+03  EK= 0.15171E+02 SP= 0.00E+00 SK= 0.00E+00 mag=     -0.000
       N       E                     dE             d eps       ncg     rms          rms(c)
RMM:   1    -0.196901358364E+03    0.32765E-02   -0.28847E-04   334   0.155E-02    0.212E-03
RMM:   2    -0.196901358882E+03   -0.51802E-06   -0.64685E-06   266   0.513E-03    0.325E-04
RMM:   3    -0.196901359121E+03   -0.23886E-06   -0.15040E-06   216   0.250E-03    0.270E-04
RMM:   4    -0.196901359261E+03   -0.13961E-06   -0.40786E-07   177   0.180E-03
  127 T=  4191. E= -.18173388E+03 F= -.19690136E+03 E0= -.19690136E+03  EK= 0.15167E+02 SP= 0.00E+00 SK= 0.00E+00 mag=     -0.000
       N       E                     dE             d eps       ncg     rms          rms(c)
RMM:   1    -0.196897688622E+03    0.36705E-02   -0.32716E-04   340   0.164E-02    0.246E-03
RMM:   2    -0.196897689588E+03   -0.96585E-06   -0.70260E-06   271   0.564E-03    0.381E-04
RMM:   3    -0.196897689968E+03   -0.37922E-06   -0.17995E-06   231   0.275E-03    0.869E-04
RMM:   4    -0.196897690168E+03   -0.20005E-06   -0.41356E-07   179   0.170E-03
  128 T=  4190. E= -.18173391E+03 F= -.19689769E+03 E0= -.19689769E+03  EK= 0.15164E+02 SP= 0.00E+00 SK= 0.00E+00 mag=      0.000
       N       E                     dE             d eps       ncg     rms          rms(c)
RMM:   1    -0.196893593839E+03    0.40961E-02   -0.37864E-04   345   0.169E-02    0.251E-03
RMM:   2    -0.196893593803E+03    0.35965E-07   -0.75395E-06   271   0.558E-03    0.314E-04
RMM:   3    -0.196893594204E+03   -0.40026E-06   -0.17332E-06   226   0.264E-03    0.426E-04
RMM:   4    -0.196893594635E+03   -0.43191E-06   -0.40387E-07   180   0.173E-03
  129 T=  4189. E= -.18173385E+03 F= -.19689359E+03 E0= -.19689359E+03  EK= 0.15160E+02 SP= 0.00E+00 SK= 0.00E+00 mag=      0.000
       N       E                     dE             d eps       ncg     rms          rms(c)
RMM:   1    -0.196889149525E+03    0.44447E-02   -0.37118E-04   345   0.172E-02    0.257E-03
RMM:   2    -0.196889149933E+03   -0.40830E-06   -0.73094E-06   275   0.568E-03    0.305E-04
RMM:   3    -0.196889150238E+03   -0.30447E-06   -0.17157E-06   235   0.270E-03    0.639E-04
RMM:   4    -0.196889150419E+03   -0.18109E-06   -0.39357E-07   179   0.167E-03
  130 T=  4187. E= -.18173373E+03 F= -.19688915E+03 E0= -.19688915E+03  EK= 0.15155E+02 SP= 0.00E+00 SK= 0.00E+00 mag=      0.000
       N       E                     dE             d eps       ncg     rms          rms(c)
RMM:   1    -0.196884887047E+03    0.42632E-02   -0.27567E-04   333   0.157E-02    0.234E-03
RMM:   2    -0.196884888094E+03   -0.10471E-05   -0.66565E-06   269   0.551E-03    0.340E-04
RMM:   3    -0.196884888507E+03   -0.41220E-06   -0.16298E-06   223   0.261E-03    0.521E-04
RMM:   4    -0.196884888643E+03   -0.13663E-06   -0.40065E-07   179   0.172E-03
  131 T=  4186. E= -.18173361E+03 F= -.19688489E+03 E0= -.19688489E+03  EK= 0.15151E+02 SP= 0.00E+00 SK= 0.00E+00 mag=     -0.000
       N       E                     dE             d eps       ncg     rms          rms(c)
RMM:   1    -0.196880895752E+03    0.39928E-02   -0.41628E-04   340   0.171E-02    0.175E-03
RMM:   2    -0.196880895988E+03   -0.23613E-06   -0.59232E-06   265   0.507E-03    0.228E-04
RMM:   3    -0.196880896360E+03   -0.37234E-06   -0.14373E-06   223   0.246E-03    0.399E-04
RMM:   4    -0.196880896640E+03   -0.28027E-06   -0.31906E-07   170   0.169E-03
[...]
       N       E                     dE             d eps       ncg     rms          rms(c)
RMM:   1    -0.189871356941E+03   -0.25792E-02   -0.16297E-04   367   0.159E-02    0.235E-01
RMM:   2    -0.189871379840E+03   -0.22899E-04   -0.92655E-06   274   0.665E-03    0.238E-01
RMM:   3    -0.189871375844E+03    0.39967E-05   -0.18745E-06   231   0.305E-03    0.237E-01
RMM:   4    -0.189871376450E+03   -0.60666E-06   -0.78804E-07   207   0.228E-03
 1325 T=  2249. E= -.18173088E+03 F= -.18987138E+03 E0= -.18984414E+03  EK= 0.81405E+01 SP= 0.00E+00 SK= 0.00E+00 mag=     -0.002
       N       E                     dE             d eps       ncg     rms          rms(c)
RMM:   1    -0.189874146022E+03   -0.27702E-02   -0.18395E-04   396   0.200E-02    0.293E-01
RMM:   2    -0.189874183448E+03   -0.37425E-04   -0.72003E-06   272   0.583E-03    0.294E-01
RMM:   3    -0.189874189186E+03   -0.57389E-05   -0.22318E-06   247   0.339E-03    0.294E-01
RMM:   4    -0.189874169689E+03    0.19497E-04   -0.91469E-07   214   0.244E-03    0.292E-01
RMM:   5    -0.189874172070E+03   -0.23801E-05   -0.22573E-07   172   0.174E-03
 1326 T=  2250. E= -.18173139E+03 F= -.18987417E+03 E0= -.18984692E+03  EK= 0.81428E+01 SP= 0.00E+00 SK= 0.00E+00 mag=     -0.002
       N       E                     dE             d eps       ncg     rms          rms(c)
RMM:   1    -0.189877295553E+03   -0.31259E-02   -0.20723E-04   377   0.178E-02    0.356E-01
RMM:   2    -0.189877377063E+03   -0.81510E-04   -0.15116E-05   277   0.888E-03    0.363E-01
RMM:   3    -0.189877369123E+03    0.79400E-05   -0.37452E-06   259   0.465E-03    0.365E-01
RMM:   4    -0.189877365158E+03    0.39653E-05   -0.12676E-06   233   0.278E-03
 1327 T=  2250. E= -.18173229E+03 F= -.18987737E+03 E0= -.18985009E+03  EK= 0.81451E+01 SP= 0.00E+00 SK= 0.00E+00 mag=     -0.002
       N       E                     dE             d eps       ncg     rms          rms(c)
RMM:   1    -0.189880849421E+03   -0.34803E-02   -0.21575E-04   388   0.180E-02    0.457E-01
RMM:   2    -0.189880811903E+03    0.37518E-04   -0.63732E-06   268   0.557E-03    0.455E-01
RMM:   3    -0.189880782019E+03    0.29885E-04   -0.24384E-06   253   0.338E-03    0.452E-01
RMM:   4    -0.189876841216E+03    0.39408E-02   -0.18843E-02   396   0.291E-01    0.893E-02
RMM:   5    -0.189877257356E+03   -0.41614E-03   -0.87905E-04   439   0.580E-02    0.453E-02
RMM:   6    -0.189877365158E+03   -0.10780E-03   -0.26606E-05   282   0.132E-02    0.470E-02
RMM:   7    -0.189877453982E+03   -0.88824E-04   -0.35808E-05   315   0.136E-02    0.423E-02
RMM:   8    -0.189877454407E+03   -0.42578E-06   -0.13492E-05   271   0.968E-03
 1328 T=  2251. E= -.18173007E+03 F= -.18987745E+03 E0= -.18985017E+03  EK= 0.81474E+01 SP= 0.00E+00 SK= 0.00E+00 mag=     -0.001
       N       E                     dE             d eps       ncg     rms          rms(c)
RMM:   1    -0.189886309688E+03   -0.88557E-02   -0.16941E-03   417   0.756E-02    0.770E-01
RMM:   2    -0.189878380602E+03    0.79291E-02   -0.60607E-02   396   0.523E-01    0.951E-02
RMM:   3    -0.189879677005E+03   -0.12964E-02   -0.23789E-03   437   0.967E-02    0.458E-02
RMM:   4    -0.189879874803E+03   -0.19780E-03   -0.78593E-05   339   0.200E-02    0.361E-02
RMM:   5    -0.189879893541E+03   -0.18738E-04   -0.13308E-05   274   0.874E-03    0.345E-02
RMM:   6    -0.189879888550E+03    0.49910E-05   -0.12622E-05   272   0.845E-03
 1329 T=  2252. E= -.18173005E+03 F= -.18987989E+03 E0= -.18985259E+03  EK= 0.81498E+01 SP= 0.00E+00 SK= 0.00E+00 mag=     -0.000
       N       E                     dE             d eps       ncg     rms          rms(c)
RMM:   1    -0.189883928758E+03   -0.40352E-02   -0.48319E-04   425   0.361E-02    0.339E-01
RMM:   2    -0.189881759693E+03    0.21691E-02   -0.13505E-02   396   0.247E-01    0.723E-02
RMM:   3    -0.189881968298E+03   -0.20861E-03   -0.50251E-04   430   0.453E-02    0.813E-02
RMM:   4    -0.189881987783E+03   -0.19485E-04   -0.25073E-05   295   0.115E-02    0.729E-02
RMM:   5    -0.189882249846E+03   -0.26206E-03   -0.37250E-05   318   0.144E-02    0.226E-02
RMM:   6    -0.189882491156E+03   -0.24131E-03   -0.15968E-05   278   0.938E-03    0.180E-02
RMM:   7    -0.189882572690E+03   -0.81534E-04   -0.23181E-05   293   0.111E-02    0.159E-02
RMM:   8    -0.189882597734E+03   -0.25044E-04   -0.70080E-06   270   0.621E-03    0.116E-02
RMM:   9    -0.189882613009E+03   -0.15274E-04   -0.20880E-06   266   0.384E-03    0.801E-03
RMM:  10    -0.189882623740E+03   -0.10731E-04   -0.59568E-06   268   0.593E-03    0.539E-03
RMM:  11    -0.189882628876E+03   -0.51355E-05   -0.23136E-06   255   0.363E-03
 1330 T=  2252. E= -.18173028E+03 F= -.18988263E+03 E0= -.18985531E+03  EK= 0.81523E+01 SP= 0.00E+00 SK= 0.00E+00 mag=     -0.000
       N       E                     dE             d eps       ncg     rms          rms(c)
RMM:   1    -0.189883669321E+03   -0.10456E-02   -0.30102E-04   394   0.259E-02    0.103E-01
RMM:   2    -0.189884728957E+03   -0.10596E-02   -0.20175E-04   391   0.292E-02    0.267E-02
RMM:   3    -0.189884869575E+03   -0.14062E-03   -0.12327E-05   273   0.839E-03    0.257E-02
RMM:   4    -0.189884900608E+03   -0.31034E-04   -0.65960E-06   272   0.625E-03    0.205E-02
RMM:   5    -0.189884947282E+03   -0.46673E-04   -0.27153E-05   300   0.110E-02    0.823E-03
RMM:   6    -0.189884998244E+03   -0.50962E-04   -0.26506E-05   306   0.109E-02    0.602E-03
RMM:   7    -0.189885012141E+03   -0.13897E-04   -0.65180E-06   268   0.598E-03    0.922E-03
RMM:   8    -0.189885018466E+03   -0.63244E-05   -0.14457E-06   236   0.305E-03
 1331 T=  2253. E= -.18173021E+03 F= -.18988502E+03 E0= -.18985768E+03  EK= 0.81548E+01 SP= 0.00E+00 SK= 0.00E+00 mag=      0.000
       N       E                     dE             d eps       ncg     rms          rms(c)
RMM:   1    -0.189887057319E+03   -0.20452E-02   -0.16777E-04   368   0.174E-02    0.523E-02
RMM:   2    -0.189887269446E+03   -0.21213E-03   -0.13232E-04   388   0.247E-02    0.184E-02
RMM:   3    -0.189887278748E+03   -0.93023E-05   -0.14896E-05   278   0.910E-03    0.135E-02
RMM:   4    -0.189887293756E+03   -0.15008E-04   -0.10402E-05   268   0.761E-03    0.939E-03
RMM:   5    -0.189887310432E+03   -0.16675E-04   -0.76624E-06   268   0.638E-03    0.610E-03
RMM:   6    -0.189887317628E+03   -0.71961E-05   -0.28705E-06   246   0.407E-03
 1332 T=  2254. E= -.18173024E+03 F= -.18988732E+03 E0= -.18985996E+03  EK= 0.81571E+01 SP= 0.00E+00 SK= 0.00E+00 mag=     -0.000
       N       E                     dE             d eps       ncg     rms          rms(c)
RMM:   1    -0.189889287051E+03   -0.19766E-02   -0.13452E-04   373   0.161E-02    0.293E-02
RMM:   2    -0.189889382139E+03   -0.95088E-04   -0.35273E-05   317   0.128E-02    0.135E-02
RMM:   3    -0.189889386018E+03   -0.38795E-05   -0.86473E-06   268   0.716E-03    0.897E-03
RMM:   4    -0.189889391111E+03   -0.50929E-05   -0.37397E-06   265   0.471E-03
 1333 T=  2254. E= -.18173028E+03 F= -.18988939E+03 E0= -.18986202E+03  EK= 0.81591E+01 SP= 0.00E+00 SK= 0.00E+00 mag=     -0.000
       N       E                     dE             d eps       ncg     rms          rms(c)
RMM:   1    -0.189891277791E+03   -0.18918E-02   -0.22318E-04   403   0.247E-02    0.113E-02
RMM:   2    -0.189891345289E+03   -0.67498E-04   -0.17875E-05   283   0.102E-02    0.310E-03
RMM:   3    -0.189891353067E+03   -0.77778E-05   -0.50661E-06   268   0.548E-03    0.268E-03
RMM:   4    -0.189891357450E+03   -0.43833E-05   -0.12007E-06   236   0.271E-03
 1334 T=  2255. E= -.18173036E+03 F= -.18989136E+03 E0= -.18986397E+03  EK= 0.81610E+01 SP= 0.00E+00 SK= 0.00E+00 mag=      0.000
       N       E                     dE             d eps       ncg     rms          rms(c)
RMM:   1    -0.189893139268E+03   -0.17862E-02   -0.14532E-04   396   0.200E-02    0.545E-03
RMM:   2    -0.189893153218E+03   -0.13949E-04   -0.66825E-06   271   0.636E-03    0.246E-03
RMM:   3    -0.189893156025E+03   -0.28074E-05   -0.19270E-06   252   0.321E-03    0.245E-03
RMM:   4    -0.189893160016E+03   -0.39905E-05   -0.35943E-07   179   0.178E-03
 1335 T=  2255. E= -.18173033E+03 F= -.18989316E+03 E0= -.18986576E+03  EK= 0.81628E+01 SP= 0.00E+00 SK= 0.00E+00 mag=      0.000
       N       E                     dE             d eps       ncg     rms          rms(c)
RMM:   1    -0.189895112246E+03   -0.19562E-02   -0.10758E-04   360   0.138E-02    0.331E-03
RMM:   2    -0.189895126011E+03   -0.13764E-04   -0.44195E-06   268   0.480E-03    0.180E-03
RMM:   3    -0.189895129447E+03   -0.34359E-05   -0.13829E-06   209   0.265E-03    0.979E-04
RMM:   4    -0.189895135265E+03   -0.58185E-05   -0.58073E-07   200   0.211E-03
 1336 T=  2256. E= -.18173038E+03 F= -.18989514E+03 E0= -.18986772E+03  EK= 0.81648E+01 SP= 0.00E+00 SK= 0.00E+00 mag=      0.000
       N       E                     dE             d eps       ncg     rms          rms(c)
RMM:   1    -0.189897146708E+03   -0.20173E-02   -0.11569E-04   364   0.144E-02    0.635E-03
RMM:   2    -0.189897157858E+03   -0.11150E-04   -0.56983E-06   267   0.533E-03    0.566E-03
RMM:   3    -0.189897158054E+03   -0.19619E-06   -0.12956E-06   204   0.250E-03    0.525E-03
RMM:   4    -0.189897157448E+03    0.60604E-06   -0.36698E-07   174   0.182E-03
 1337 T=  2256. E= -.18173040E+03 F= -.18989716E+03 E0= -.18986973E+03  EK= 0.81668E+01 SP= 0.00E+00 SK= 0.00E+00 mag=     -0.000
       N       E                     dE             d eps       ncg     rms          rms(c)
RMM:   1    -0.189899193963E+03   -0.20359E-02   -0.10890E-04   354   0.137E-02    0.114E-02
RMM:   2    -0.189899198621E+03   -0.46579E-05   -0.55671E-06   269   0.509E-03    0.829E-03
RMM:   3    -0.189899210660E+03   -0.12039E-04   -0.36369E-06   259   0.406E-03    0.560E-03
RMM:   4    -0.189899225467E+03   -0.14807E-04   -0.17159E-06   225   0.294E-03    0.441E-03
RMM:   5    -0.189899233490E+03   -0.80228E-05   -0.16475E-06   250   0.305E-03
 1338 T=  2257. E= -.18173042E+03 F= -.18989923E+03 E0= -.18987179E+03  EK= 0.81688E+01 SP= 0.00E+00 SK= 0.00E+00 mag=     -0.000
       N       E                     dE             d eps       ncg     rms          rms(c)
RMM:   1    -0.189901201593E+03   -0.19761E-02   -0.13313E-04   356   0.147E-02    0.867E-03
RMM:   2    -0.189901248129E+03   -0.46536E-04   -0.10090E-05   276   0.695E-03    0.341E-03
RMM:   3    -0.189901251383E+03   -0.32547E-05   -0.32571E-06   250   0.409E-03    0.112E-03
RMM:   4    -0.189901255412E+03   -0.40285E-05   -0.13363E-06   244   0.286E-03
 1339 T=  2258. E= -.18173040E+03 F= -.18990126E+03 E0= -.18987380E+03  EK= 0.81709E+01 SP= 0.00E+00 SK= 0.00E+00 mag=     -0.000
       N       E                     dE             d eps       ncg     rms          rms(c)
RMM:   1    -0.189903229543E+03   -0.19782E-02   -0.12676E-04   366   0.153E-02    0.387E-03
RMM:   2    -0.189903240089E+03   -0.10546E-04   -0.57975E-06   268   0.560E-03    0.274E-03
RMM:   3    -0.189903240214E+03   -0.12553E-06   -0.13937E-06   220   0.271E-03    0.284E-03
RMM:   4    -0.189903243545E+03   -0.33308E-05   -0.38267E-07   178   0.190E-03
 1340 T=  2258. E= -.18173037E+03 F= -.18990324E+03 E0= -.18987577E+03  EK= 0.81729E+01 SP= 0.00E+00 SK= 0.00E+00 mag=     -0.000
       N       E                     dE             d eps       ncg     rms          rms(c)
RMM:   1    -0.189905256026E+03   -0.20158E-02   -0.14528E-04   378   0.154E-02    0.583E-03
RMM:   2    -0.189905252256E+03    0.37699E-05   -0.39066E-06   260   0.418E-03    0.404E-03
RMM:   3    -0.189905254094E+03   -0.18384E-05   -0.15528E-06   235   0.275E-03    0.249E-03
RMM:   4    -0.189905263531E+03   -0.94363E-05   -0.63812E-07   201   0.205E-03
 1341 T=  2259. E= -.18173037E+03 F= -.18990526E+03 E0= -.18987778E+03  EK= 0.81749E+01 SP= 0.00E+00 SK= 0.00E+00 mag=     -0.000
       N       E                     dE             d eps       ncg     rms          rms(c)
RMM:   1    -0.189907389226E+03   -0.21351E-02   -0.17764E-04   373   0.158E-02    0.321E-03
RMM:   2    -0.189907389997E+03   -0.77124E-06   -0.55790E-06   268   0.517E-03    0.278E-03
RMM:   3    -0.189907391332E+03   -0.13344E-05   -0.13693E-06   202   0.254E-03    0.238E-03
RMM:   4    -0.189907396695E+03   -0.53628E-05   -0.44131E-07   178   0.180E-03
 1342 T=  2259. E= -.18173040E+03 F= -.18990740E+03 E0= -.18987990E+03  EK= 0.81770E+01 SP= 0.00E+00 SK= 0.00E+00 mag=     -0.000
       N       E                     dE             d eps       ncg     rms          rms(c)
RMM:   1    -0.189909578236E+03   -0.21869E-02   -0.16866E-04   362   0.148E-02    0.510E-03
RMM:   2    -0.189909578661E+03   -0.42488E-06   -0.47510E-06   261   0.464E-03    0.333E-03
RMM:   3    -0.189909579792E+03   -0.11312E-05   -0.12951E-06   207   0.234E-03    0.270E-03
RMM:   4    -0.189909583087E+03   -0.32952E-05   -0.44865E-07   181   0.193E-03
 1343 T=  2260. E= -.18173043E+03 F= -.18990958E+03 E0= -.18988207E+03  EK= 0.81792E+01 SP= 0.00E+00 SK= 0.00E+00 mag=     -0.000
       N       E                     dE             d eps       ncg     rms          rms(c)
RMM:   1    -0.189911651938E+03   -0.20721E-02   -0.17175E-04   375   0.153E-02    0.501E-03
RMM:   2    -0.189911651603E+03    0.33497E-06   -0.50097E-06   268   0.499E-03    0.520E-03
RMM:   3    -0.189911651831E+03   -0.22804E-06   -0.13465E-06   219   0.254E-03    0.473E-03
RMM:   4    -0.189911650930E+03    0.90102E-06   -0.35938E-07   174   0.165E-03
 1344 T=  2260. E= -.18173043E+03 F= -.18991165E+03 E0= -.18988412E+03  EK= 0.81812E+01 SP= 0.00E+00 SK= 0.00E+00 mag=      0.000
       N       E                     dE             d eps       ncg     rms          rms(c)
RMM:   1    -0.189913616943E+03   -0.19651E-02   -0.16486E-04   379   0.154E-02    0.862E-03
RMM:   2    -0.189913617302E+03   -0.35958E-06   -0.41868E-06   264   0.446E-03    0.748E-03
RMM:   3    -0.189913607649E+03    0.96537E-05   -0.98322E-07   194   0.216E-03    0.648E-03
RMM:   4    -0.189913610382E+03   -0.27334E-05   -0.24347E-07   163   0.160E-03
 1345 T=  2261. E= -.18173039E+03 F= -.18991361E+03 E0= -.18988607E+03  EK= 0.81832E+01 SP= 0.00E+00 SK= 0.00E+00 mag=      0.000
       N       E                     dE             d eps       ncg     rms          rms(c)
RMM:   1    -0.189915606147E+03   -0.19985E-02   -0.17916E-04   380   0.165E-02    0.436E-03
RMM:   2    -0.189915607526E+03   -0.13793E-05   -0.60758E-06   267   0.574E-03    0.310E-03
RMM:   3    -0.189915615033E+03   -0.75061E-05   -0.15297E-06   223   0.276E-03    0.220E-03
RMM:   4    -0.189915632221E+03   -0.17188E-04   -0.50652E-07   180   0.198E-03    0.241E-03
RMM:   5    -0.189915642236E+03   -0.10015E-04   -0.38873E-07   183   0.191E-03    0.140E-03
RMM:   6    -0.189915644743E+03   -0.25071E-05   -0.24669E-07   175   0.184E-03
 1346 T=  2262. E= -.18173051E+03 F= -.18991564E+03 E0= -.18988809E+03  EK= 0.81851E+01 SP= 0.00E+00 SK= 0.00E+00 mag=      0.000
       N       E                     dE             d eps       ncg     rms          rms(c)
RMM:   1    -0.189917258823E+03   -0.16166E-02   -0.15637E-04   371   0.151E-02    0.100E-02
RMM:   2    -0.189917349562E+03   -0.90739E-04   -0.85084E-06   272   0.654E-03    0.380E-03
RMM:   3    -0.189917352182E+03   -0.26203E-05   -0.37460E-06   259   0.435E-03    0.143E-03
RMM:   4    -0.189917354776E+03   -0.25940E-05   -0.11142E-06   224   0.260E-03
 1347 T=  2262. E= -.18173046E+03 F= -.18991735E+03 E0= -.18988979E+03  EK= 0.81869E+01 SP= 0.00E+00 SK= 0.00E+00 mag=      0.000
       N       E                     dE             d eps       ncg     rms          rms(c)
RMM:   1    -0.189919155309E+03   -0.18031E-02   -0.16266E-04   373   0.161E-02    0.617E-03
RMM:   2    -0.189919183343E+03   -0.28034E-04   -0.72640E-06   270   0.628E-03    0.207E-03
RMM:   3    -0.189919183759E+03   -0.41639E-06   -0.22547E-06   248   0.337E-03    0.134E-03
RMM:   4    -0.189919186095E+03   -0.23361E-05   -0.43762E-07   188   0.193E-03
 1348 T=  2263. E= -.18173045E+03 F= -.18991919E+03 E0= -.18989161E+03  EK= 0.81887E+01 SP= 0.00E+00 SK= 0.00E+00 mag=      0.000
       N       E                     dE             d eps       ncg     rms          rms(c)
RMM:   1    -0.189921127189E+03   -0.19434E-02   -0.16357E-04   373   0.157E-02    0.301E-03
RMM:   2    -0.189921129986E+03   -0.27970E-05   -0.46288E-06   267   0.468E-03    0.243E-03
RMM:   3    -0.189921132468E+03   -0.24823E-05   -0.11244E-06   195   0.221E-03    0.172E-03
RMM:   4    -0.189921133158E+03   -0.69001E-06   -0.43007E-07   186   0.187E-03
 1349 T=  2263. E= -.18173045E+03 F= -.18992113E+03 E0= -.18989354E+03  EK= 0.81907E+01 SP= 0.00E+00 SK= 0.00E+00 mag=     -0.000
       N       E                     dE             d eps       ncg     rms          rms(c)
RMM:   1    -0.189923059557E+03   -0.19271E-02   -0.17391E-04   370   0.155E-02    0.322E-03
RMM:   2    -0.189923058487E+03    0.10706E-05   -0.50994E-06   269   0.515E-03    0.124E-03
RMM:   3    -0.189923060695E+03   -0.22088E-05   -0.11274E-06   207   0.240E-03    0.988E-04
RMM:   4    -0.189923063705E+03   -0.30098E-05   -0.29460E-07   169   0.165E-03
 1350 T=  2264. E= -.18173044E+03 F= -.18992306E+03 E0= -.18989546E+03  EK= 0.81926E+01 SP= 0.00E+00 SK= 0.00E+00 mag=     -0.000
       N       E                     dE             d eps       ncg     rms          rms(c)
RMM:   1    -0.189925163753E+03   -0.21031E-02   -0.14708E-04   360   0.140E-02    0.310E-03
RMM:   2    -0.189925167911E+03   -0.41574E-05   -0.52012E-06   266   0.498E-03    0.124E-03
RMM:   3    -0.189925169212E+03   -0.13009E-05   -0.12805E-06   209   0.232E-03    0.651E-04
RMM:   4    -0.189925170955E+03   -0.17437E-05   -0.31446E-07   171   0.171E-03
 1351 T=  2264. E= -.18173044E+03 F= -.18992517E+03 E0= -.18989756E+03  EK= 0.81947E+01 SP= 0.00E+00 SK= 0.00E+00 mag=     -0.000
       N       E                     dE             d eps       ncg     rms          rms(c)
RMM:   1    -0.189927424339E+03   -0.22551E-02   -0.14224E-04   366   0.140E-02    0.248E-03
RMM:   2    -0.189927420992E+03    0.33475E-05   -0.48014E-06   263   0.466E-03    0.116E-03
RMM:   3    -0.189927423472E+03   -0.24807E-05   -0.12957E-06   212   0.244E-03    0.141E-03
RMM:   4    -0.189927424813E+03   -0.13402E-05   -0.31139E-07   170   0.163E-03
 1352 T=  2265. E= -.18173036E+03 F= -.18992742E+03 E0= -.18989980E+03  EK= 0.81971E+01 SP= 0.00E+00 SK= 0.00E+00 mag=     -0.000
       N       E                     dE             d eps       ncg     rms          rms(c)
RMM:   1    -0.189929879719E+03   -0.24562E-02   -0.16198E-04   374   0.146E-02    0.453E-03
RMM:   2    -0.189929879515E+03    0.20360E-06   -0.43948E-06   265   0.467E-03    0.251E-03
RMM:   3    -0.189929879868E+03   -0.35343E-06   -0.10645E-06   200   0.233E-03    0.206E-03
RMM:   4    -0.189929880153E+03   -0.28492E-06   -0.34750E-07   180   0.183E-03
 1353 T=  2266. E= -.18173029E+03 F= -.18992988E+03 E0= -.18990224E+03  EK= 0.81996E+01 SP= 0.00E+00 SK= 0.00E+00 mag=     -0.000
       N       E                     dE             d eps       ncg     rms          rms(c)
RMM:   1    -0.189932489499E+03   -0.26096E-02   -0.15624E-04   368   0.149E-02    0.548E-03
RMM:   2    -0.189932491749E+03   -0.22498E-05   -0.53427E-06   266   0.509E-03    0.416E-03
RMM:   3    -0.189932492839E+03   -0.10902E-05   -0.15946E-06   230   0.267E-03    0.391E-03
RMM:   4    -0.189932490170E+03    0.26696E-05   -0.42236E-07   178   0.171E-03
 1354 T=  2266. E= -.18173020E+03 F= -.18993249E+03 E0= -.18990484E+03  EK= 0.82023E+01 SP= 0.00E+00 SK= 0.00E+00 mag=      0.000
       N       E                     dE             d eps       ncg     rms          rms(c)
RMM:   1    -0.189935386932E+03   -0.28941E-02   -0.15027E-04   379   0.152E-02    0.712E-03
RMM:   2    -0.189935400419E+03   -0.13487E-04   -0.74810E-06   268   0.653E-03    0.377E-03
RMM:   3    -0.189935411307E+03   -0.10887E-04   -0.23017E-06   244   0.355E-03    0.306E-03
