CH4                                     
           1
    20.000000    0.000000    0.000000
     0.000000   20.000000    0.000000
     0.000000    0.000000   20.000000
   O    Si   H    C    Ar
  12   8  10   1   1
Direct configuration=    50
   0.38235000  0.57673001  0.50020999
   0.49210863  0.61636831  0.43400242
   0.49129028  0.61597433  0.56908001
   0.38234001  0.46041000  0.43213999
   0.49254032  0.50072858  0.36439571
   0.60223963  0.53976687  0.43322908
   0.49116932  0.49850906  0.63616172
   0.49282484  0.38300446  0.56729499
   0.38209000  0.45960999  0.56687999
   0.60244036  0.53909314  0.56821021
   0.60348558  0.42311326  0.50075815
   0.49388864  0.38426546  0.43100403
   0.44627797  0.62827475  0.50202939
   0.35552001  0.49897000  0.49969000
   0.53792757  0.56505269  0.38894733
   0.44700891  0.43567114  0.38800024
   0.44717566  0.43379248  0.61157769
   0.53737895  0.56289653  0.61258670
   0.53906937  0.37075602  0.49897453
   0.63012775  0.50052031  0.50081584
   0.42210349  0.69775751  0.50376795
   0.28165172  0.49863534  0.49950526
   0.56271464  0.60082622  0.32946745
   0.42241042  0.40117230  0.32804286
   0.42294220  0.39786230  0.67107547
   0.56075458  0.59720032  0.67298821
   0.56352936  0.30136646  0.49908730
   0.74388579  0.47898513  0.45517063
   0.74501491  0.47506731  0.54253006
   0.74007378  0.55534308  0.50379600
   0.72219317  0.50318737  0.50029141
   0.72286561  0.29582144  0.50034206
Direct configuration=   100
   0.38235000  0.57673001  0.50020999
   0.49176370  0.61511911  0.43434229
   0.49127932  0.61533812  0.56970362
   0.38234001  0.46041000  0.43213999
   0.49288064  0.49984830  0.36334358
   0.60209152  0.53968010  0.43349896
   0.49051090  0.49842741  0.63785070
   0.49337273  0.38329208  0.56784235
   0.38209000  0.45960999  0.56687999
   0.60269889  0.53911180  0.56897344
   0.60374674  0.42275702  0.50167787
   0.49464113  0.38444228  0.43090853
   0.44646497  0.62780865  0.50278279
   0.35552001  0.49897000  0.49969000
   0.53784978  0.56443003  0.38870892
   0.44681836  0.43535554  0.38822941
   0.44733044  0.43357578  0.61219083
   0.53720484  0.56212757  0.61307309
   0.53922062  0.37029126  0.49911577
   0.62963368  0.50042396  0.50128446
   0.42302213  0.69762950  0.50516298
   0.28221077  0.49843232  0.49937211
   0.56287667  0.60059210  0.32968134
   0.42148794  0.40008303  0.32851628
   0.42291156  0.39704949  0.67129059
   0.56057403  0.59700059  0.67397815
   0.56313513  0.30081575  0.49955819
   0.74280794  0.48277950  0.45512875
   0.74450113  0.47704854  0.54126077
   0.73865015  0.55616474  0.50403041
   0.72194618  0.50435307  0.50024059
   0.72289193  0.31705870  0.50034790
Direct configuration=   150
   0.38235000  0.57673001  0.50020999
   0.49127094  0.61390154  0.43489625
   0.49144880  0.61441897  0.57049768
   0.38234001  0.46041000  0.43213999
   0.49309324  0.49890454  0.36254879
   0.60184217  0.53939472  0.43393560
   0.49008626  0.49849487  0.63927208
   0.49430595  0.38334286  0.56774142
   0.38209000  0.45960999  0.56687999
   0.60260448  0.53904855  0.56979619
   0.60347771  0.42199146  0.50250876
   0.49554639  0.38446142  0.43125938
   0.44673965  0.62727944  0.50324009
   0.35552001  0.49897000  0.49969000
   0.53769391  0.56374071  0.38859971
   0.44675227  0.43524192  0.38830627
   0.44717292  0.43352373  0.61267117
   0.53698438  0.56142235  0.61361450
   0.53929427  0.37025657  0.49942232
   0.62923698  0.50049701  0.50160969
   0.42359186  0.69696768  0.50530613
   0.28203818  0.49852317  0.49913689
   0.56259406  0.60020253  0.32982278
   0.42111719  0.39929516  0.32959333
   0.42232265  0.39663889  0.67116175
   0.56056856  0.59609073  0.67393938
   0.56262558  0.30055310  0.49960031
   0.74169896  0.48621466  0.45147739
   0.74379331  0.47776453  0.54357871
   0.73740416  0.55865198  0.50376320
   0.72164552  0.50548977  0.50026154
   0.72296065  0.33826174  0.50035754
Direct configuration=   200
   0.38235000  0.57673001  0.50020999
   0.49078661  0.61266019  0.43548762
   0.49160401  0.61336158  0.57123334
   0.38234001  0.46041000  0.43213999
   0.49324459  0.49806253  0.36202525
   0.60139769  0.53894365  0.43441675
   0.48979541  0.49850184  0.64038432
   0.49519463  0.38341925  0.56745035
   0.38209000  0.45960999  0.56687999
   0.60222787  0.53877549  0.57052161
   0.60292374  0.42137746  0.50322196
   0.49631012  0.38450739  0.43178667
   0.44709939  0.62667386  0.50348055
   0.35552001  0.49897000  0.49969000
   0.53741770  0.56298213  0.38866825
   0.44689254  0.43519516  0.38832413
   0.44681734  0.43357424  0.61288994
   0.53676767  0.56080199  0.61427787
   0.53932329  0.37051937  0.49985688
   0.62893240  0.50061169  0.50187934
   0.42384463  0.69649462  0.50451021
   0.28167268  0.49882420  0.49891063
   0.56198587  0.59982093  0.32979471
   0.42103301  0.39836548  0.33027550
   0.42121257  0.39630013  0.67094285
   0.56113935  0.59527441  0.67430449
   0.56227577  0.30048420  0.49929489
   0.73964848  0.48947096  0.45278659
   0.74267565  0.48015508  0.54171728
   0.73501447  0.55930614  0.50408461
   0.72148097  0.50666611  0.50022117
   0.72312354  0.35935696  0.50036835
Direct configuration=   250
   0.38235000  0.57673001  0.50020999
   0.49049798  0.61133909  0.43589434
   0.49152269  0.61236541  0.57165916
   0.38234001  0.46041000  0.43213999
   0.49340494  0.49747917  0.36174383
   0.60070417  0.53838275  0.43480968
   0.48950273  0.49822522  0.64117426
   0.49552980  0.38379829  0.56754698
   0.38209000  0.45960999  0.56687999
   0.60169227  0.53819469  0.57099280
   0.60233973  0.42154505  0.50379937
   0.49663363  0.38477153  0.43217648
   0.44749792  0.62602350  0.50364221
   0.35552001  0.49897000  0.49969000
   0.53701566  0.56218474  0.38891601
   0.44724489  0.43503833  0.38838593
   0.44641923  0.43363953  0.61278484
   0.53662726  0.56028308  0.61513366
   0.53933967  0.37085486  0.50032090
   0.62867329  0.50063515  0.50221323
   0.42434262  0.69595810  0.50349477
   0.28223920  0.49913344  0.49884998
   0.56109503  0.59927490  0.33015029
   0.42125942  0.39743900  0.33041744
   0.42008797  0.39605214  0.67031638
   0.56202674  0.59483594  0.67546770
   0.56222161  0.30089844  0.49895456
   0.74090865  0.48954182  0.45141924
   0.74542969  0.48111812  0.54202178
   0.73270623  0.56244047  0.50530163
   0.72064555  0.50846072  0.50022160
   0.72347769  0.38014581  0.50037000
Direct configuration=   300
   0.38235000  0.57673001  0.50020999
   0.49045735  0.60997848  0.43603967
   0.49117030  0.61151518  0.57175182
   0.38234001  0.46041000  0.43213999
   0.49356043  0.49716183  0.36164878
   0.59983037  0.53771488  0.43510279
   0.48917193  0.49762618  0.64165698
   0.49514963  0.38450625  0.56820156
   0.38209000  0.45960999  0.56687999
   0.60105534  0.53732339  0.57121139
   0.60170817  0.42266932  0.50423612
   0.49647028  0.38525508  0.43237917
   0.44786940  0.62536465  0.50379033
   0.35552001  0.49897000  0.49969000
   0.53653128  0.56139084  0.38930031
   0.44769631  0.43469871  0.38850840
   0.44604349  0.43368105  0.61241426
   0.53659923  0.55988880  0.61621101
   0.53931741  0.37116906  0.50074466
   0.62836813  0.50059552  0.50264957
   0.42546418  0.69531895  0.50291497
   0.28201155  0.49924783  0.49901624
   0.56034932  0.59880941  0.33067264
   0.42209251  0.39717659  0.33082925
   0.41924538  0.39582630  0.66939950
   0.56219407  0.59406060  0.67591489
   0.56264520  0.30142807  0.49898856
   0.74152638  0.49425853  0.45441124
   0.74727646  0.48930955  0.54035417
   0.72978030  0.56513115  0.50518531
   0.72004637  0.51137539  0.50026165
   0.72414953  0.40007916  0.50033560
Direct configuration=   350
   0.38235000  0.57673001  0.50020999
   0.49052132  0.60874540  0.43606572
   0.49073283  0.61073555  0.57174947
   0.38234001  0.46041000  0.43213999
   0.49359877  0.49694597  0.36166805
   0.59893899  0.53689127  0.43537678
   0.48889206  0.49688164  0.64187918
   0.49438232  0.38525547  0.56900221
   0.38209000  0.45960999  0.56687999
   0.60026142  0.53630816  0.57139866
   0.60080545  0.42430039  0.50454012
   0.49606479  0.38573218  0.43266380
   0.44817243  0.62471728  0.50388251
   0.35552001  0.49897000  0.49969000
   0.53607409  0.56065589  0.38970671
   0.44808147  0.43430595  0.38867472
   0.44563052  0.43372752  0.61196396
   0.53658917  0.55955517  0.61732720
   0.53918078  0.37152460  0.50115520
   0.62796604  0.50079672  0.50312851
   0.42698099  0.69524271  0.50298063
   0.28166433  0.49908967  0.49935975
   0.56007983  0.59850088  0.33117090
   0.42289908  0.39691782  0.33063197
   0.41854674  0.39547369  0.66876910
   0.56202270  0.59388971  0.67699023
   0.56341279  0.30203000  0.49968646
   0.74401298  0.50575182  0.45211418
   0.75071336  0.50506693  0.54511419
   0.72463255  0.57382227  0.50240127
   0.71932898  0.51807496  0.50058467
   0.72529523  0.41803985  0.50024347
Direct configuration=   400
   0.38235000  0.57673001  0.50020999
   0.49047640  0.60784970  0.43618696
   0.49044468  0.60990684  0.57194338
   0.38234001  0.46041000  0.43213999
   0.49339633  0.49663384  0.36172406
   0.59813744  0.53588843  0.43564096
   0.48878193  0.49624037  0.64192457
   0.49374267  0.38563337  0.56934446
   0.38209000  0.45960999  0.56687999
   0.59920372  0.53534274  0.57189879
   0.59957011  0.42577691  0.50472628
   0.49571799  0.38591740  0.43333921
   0.44838694  0.62415213  0.50386726
   0.35552001  0.49897000  0.49969000
   0.53577969  0.56002996  0.38998674
   0.44821329  0.43401457  0.38878792
   0.44506245  0.43381938  0.61170320
   0.53648341  0.55924385  0.61832293
   0.53886400  0.37201569  0.50163236
   0.62749895  0.50170595  0.50356222
   0.42866254  0.69514333  0.50346313
   0.28223858  0.49874525  0.49972332
   0.56022217  0.59801795  0.33188714
   0.42347139  0.39655645  0.33019908
   0.41794184  0.39534954  0.66835316
   0.56151981  0.59425233  0.67848428
   0.56417275  0.30302095  0.50102737
   0.74444212  0.52589746  0.45336812
   0.74961974  0.52848260  0.54606105
   0.71429409  0.58841224  0.49818086
   0.71889294  0.53161750  0.50111700
   0.72715272  0.43289337  0.50011258
Direct configuration=   450
   0.38235000  0.57673001  0.50020999
   0.49025897  0.60738741  0.43644463
   0.49037164  0.60901353  0.57241131
   0.38234001  0.46041000  0.43213999
   0.49293647  0.49618876  0.36174693
   0.59737889  0.53477622  0.43570857
   0.48885450  0.49581867  0.64190415
   0.49340467  0.38545786  0.56904561
   0.38209000  0.45960999  0.56687999
   0.59787695  0.53453623  0.57295522
   0.59831810  0.42685700  0.50481446
   0.49546097  0.38572163  0.43437824
   0.44853190  0.62372204  0.50381426
   0.35552001  0.49897000  0.49969000
   0.53569459  0.55951546  0.39006516
   0.44800281  0.43383909  0.38881184
   0.44435936  0.43394003  0.61179557
   0.53619368  0.55896944  0.61917110
   0.53838298  0.37266238  0.50223014
   0.62721367  0.50362122  0.50394623
   0.42999484  0.69482072  0.50399158
   0.28198774  0.49840595  0.49992452
   0.56077835  0.59752300  0.33230079
   0.42387171  0.39632174  0.33054027
   0.41722378  0.39550875  0.66830839
   0.56029148  0.59413348  0.67885315
   0.56483396  0.30401266  0.50263963
   0.74589717  0.54684425  0.45521162
   0.74815732  0.55172568  0.54646299
   0.69938503  0.60525694  0.49626247
   0.71674957  0.55294655  0.50146986
   0.72993115  0.44464334  0.49996734
Direct configuration=   500
   0.38235000  0.57673001  0.50020999
   0.49003217  0.60727841  0.43663898
   0.49036064  0.60819411  0.57295439
   0.38234001  0.46041000  0.43213999
   0.49232934  0.49577623  0.36168907
   0.59658566  0.53366547  0.43533111
   0.48896100  0.49551083  0.64193586
   0.49299719  0.38493031  0.56857151
   0.38209000  0.45960999  0.56687999
   0.59653672  0.53383798  0.57448408
   0.59765463  0.42792517  0.50483117
   0.49500978  0.38530994  0.43537339
   0.44864347  0.62343569  0.50390591
   0.35552001  0.49897000  0.49969000
   0.53571630  0.55911182  0.38991477
   0.44753286  0.43366289  0.38888029
   0.44373006  0.43397753  0.61222710
   0.53561157  0.55873335  0.61987961
   0.53790492  0.37336346  0.50291134
   0.62734502  0.50652046  0.50439976
   0.43042155  0.69481263  0.50438089
   0.28168704  0.49826498  0.49987803
   0.56143068  0.59708377  0.33221925
   0.42350523  0.39545371  0.33082244
   0.41626778  0.39570375  0.66885474
   0.55920202  0.59427054  0.67971450
   0.56529479  0.30491021  0.50398051
   0.74564103  0.56717466  0.45843593
   0.74480812  0.57395364  0.54648987
   0.68490733  0.62603568  0.49747398
   0.71211913  0.57808082  0.50155713
   0.73360798  0.45433355  0.49980958
Direct configuration=   550
   0.38235000  0.57673001  0.50020999
   0.49000838  0.60738797  0.43656007
   0.49019041  0.60765043  0.57330188
   0.38234001  0.46041000  0.43213999
   0.49168434  0.49556831  0.36152927
   0.59586087  0.53259021  0.43446839
   0.48888201  0.49510897  0.64213599
   0.49201684  0.38436999  0.56859508
   0.38209000  0.45960999  0.56687999
   0.59560846  0.53311424  0.57617679
   0.59804974  0.42945430  0.50481843
   0.49410040  0.38488697  0.43594282
   0.44873364  0.62331750  0.50426050
   0.35552001  0.49897000  0.49969000
   0.53565004  0.55884199  0.38949953
   0.44693397  0.43332602  0.38907123
   0.44336199  0.43380825  0.61289964
   0.53470358  0.55860468  0.62060930
   0.53770464  0.37405779  0.50354798
   0.62773170  0.51027370  0.50503227
   0.43008124  0.69457579  0.50473171
   0.28225816  0.49841314  0.49962827
   0.56157807  0.59655477  0.33192357
   0.42252102  0.39430031  0.33136057
   0.41541634  0.39599944  0.66954239
   0.55815784  0.59444347  0.68094194
   0.56556532  0.30588493  0.50464301
   0.73935249  0.59169590  0.46106761
   0.73561661  0.59880727  0.54666513
   0.67516709  0.64745789  0.49927871
   0.70573388  0.60270263  0.50177046
   0.73798187  0.46299029  0.49963732
Direct configuration=   600
   0.38235000  0.57673001  0.50020999
   0.49023984  0.60766903  0.43624224
   0.48978247  0.60748980  0.57337558
   0.38234001  0.46041000  0.43213999
   0.49099906  0.49556207  0.36127754
   0.59550883  0.53153126  0.43335820
   0.48850524  0.49454090  0.64260640
   0.49042206  0.38387568  0.56930075
   0.38209000  0.45960999  0.56687999
   0.59536411  0.53236122  0.57786026
   0.59945212  0.43146782  0.50483790
   0.49281005  0.38450028  0.43612487
   0.44879401  0.62334309  0.50477240
   0.35552001  0.49897000  0.49969000
   0.53531590  0.55872630  0.38880346
   0.44631412  0.43279928  0.38933950
   0.44323066  0.43340176  0.61369594
   0.53353039  0.55863322  0.62150202
   0.53798810  0.37490770  0.50403003
   0.62793906  0.51465223  0.50578340
   0.42935281  0.69420767  0.50524486
   0.28194616  0.49879376  0.49930434
   0.56107028  0.59627760  0.33099245
   0.42139355  0.39357244  0.33251779
   0.41478691  0.39622452  0.67039551
   0.55647803  0.59406041  0.68142477
   0.56599161  0.30675580  0.50462251
   0.73108149  0.61962551  0.45733071
   0.72513816  0.62544164  0.55166747
   0.66535193  0.66959590  0.49917523
   0.69810591  0.62502398  0.50243681
   0.74285720  0.47115847  0.49945301
Direct configuration=   650
   0.38235000  0.57673001  0.50020999
   0.49062282  0.60815759  0.43593076
   0.48927760  0.60764007  0.57336837
   0.38234001  0.46041000  0.43213999
   0.49019273  0.49560430  0.36097344
   0.59574897  0.53059563  0.43224458
   0.48790697  0.49396655  0.64340424
   0.48877628  0.38326798  0.57019405
   0.38209000  0.45960999  0.56687999
   0.59570940  0.53180267  0.57966422
   0.60140415  0.43360605  0.50496168
   0.49153738  0.38405578  0.43633766
   0.44878653  0.62346393  0.50515533
   0.35552001  0.49897000  0.49969000
   0.53467855  0.55877049  0.38785539
   0.44575044  0.43222018  0.38959641
   0.44309423  0.43281476  0.61454179
   0.53219732  0.55873680  0.62246592
   0.53877645  0.37618764  0.50436473
   0.62761967  0.51928245  0.50645534
   0.42864534  0.69433308  0.50594846
   0.28166733  0.49926906  0.49904313
   0.55986936  0.59624083  0.32954061
   0.42006189  0.39287201  0.33291906
   0.41423910  0.39621886  0.67160947
   0.55454423  0.59432605  0.68277532
   0.56678384  0.30798225  0.50429671
   0.72005841  0.64789940  0.45891518
   0.71380879  0.65076784  0.55100194
   0.65303528  0.68591431  0.49799441
   0.69009053  0.64561779  0.50337791
   0.74810413  0.47907525  0.49925341
Direct configuration=   700
   0.38235000  0.57673001  0.50020999
   0.49105063  0.60886968  0.43584514
   0.48889126  0.60793547  0.57354123
   0.38234001  0.46041000  0.43213999
   0.48922000  0.49555584  0.36067319
   0.59644852  0.53008823  0.43111070
   0.48723152  0.49361337  0.64451515
   0.48777728  0.38235055  0.57063942
   0.38209000  0.45960999  0.56687999
   0.59631188  0.53175583  0.58182379
   0.60338544  0.43549719  0.50525421
   0.49069514  0.38350411  0.43697192
   0.44864743  0.62368076  0.50515545
   0.35552001  0.49897000  0.49969000
   0.53386015  0.55892995  0.38677241
   0.44526623  0.43169052  0.38971197
   0.44268953  0.43212370  0.61539944
   0.53087010  0.55884491  0.62343059
   0.53997524  0.37807798  0.50463189
   0.62665403  0.52373077  0.50689171
   0.42850758  0.69447546  0.50658634
   0.28225148  0.49967216  0.49892763
   0.55803249  0.59616991  0.32811604
   0.41915229  0.39258662  0.33280092
   0.41373220  0.39618183  0.67274294
   0.55203728  0.59507525  0.68428988
   0.56819761  0.31009896  0.50413364
   0.71470349  0.67119242  0.45976164
   0.70754971  0.67285297  0.55298946
   0.63496644  0.69557098  0.49803284
   0.68108189  0.66526586  0.50418372
   0.75357819  0.48686181  0.49904279
Direct configuration=   750
   0.38235000  0.57673001  0.50020999
   0.49151909  0.60973193  0.43600840
   0.48868815  0.60827246  0.57391405
   0.38234001  0.46041000  0.43213999
   0.48814517  0.49542106  0.36043361
   0.59722759  0.53035509  0.42976040
   0.48650398  0.49351384  0.64584037
   0.48771303  0.38124343  0.57045579
   0.38209000  0.45960999  0.56687999
   0.59689723  0.53243480  0.58433270
   0.60501891  0.43704273  0.50575707
   0.49043591  0.38300378  0.43806251
   0.44836567  0.62396806  0.50474315
   0.35552001  0.49897000  0.49969000
   0.53301116  0.55911713  0.38574009
   0.44491309  0.43119400  0.38968049
   0.44199197  0.43137425  0.61615452
   0.52968841  0.55893453  0.62439788
   0.54148210  0.38056068  0.50490625
   0.62508247  0.52758265  0.50711750
   0.42891006  0.69479491  0.50677293
   0.28193139  0.49989400  0.49896169
   0.55597015  0.59630674  0.32653845
   0.41915797  0.39277913  0.33270810
   0.41297405  0.39587176  0.67363509
   0.54871851  0.59569503  0.68485818
   0.57075754  0.31290862  0.50437128
   0.70651041  0.68956189  0.46422253
   0.69768723  0.69148502  0.55125144
   0.61888115  0.69892684  0.50013821
   0.67203285  0.68428255  0.50490502
   0.75923311  0.49456457  0.49882230
Direct configuration=   800
   0.38235000  0.57673001  0.50020999
   0.49210000  0.61059830  0.43626390
   0.48853765  0.60864530  0.57422130
   0.38234001  0.46041000  0.43213999
   0.48710763  0.49532692  0.36029873
   0.59774878  0.53157082  0.42809285
   0.48560419  0.49346486  0.64721818
   0.48839748  0.38038561  0.56996595
   0.38209000  0.45960999  0.56687999
   0.59736247  0.53387545  0.58689975
   0.60613320  0.43850839  0.50646728
   0.49066141  0.38287670  0.43932363
   0.44801251  0.62428946  0.50411628
   0.35552001  0.49897000  0.49969000
   0.53221618  0.55928640  0.38487598
   0.44479519  0.43065295  0.38966684
   0.44122657  0.43056041  0.61662656
   0.52868992  0.55898968  0.62535006
   0.54320132  0.38338580  0.50523328
   0.62301709  0.53050161  0.50728488
   0.42936936  0.69555672  0.50624185
   0.28170290  0.49990489  0.49912925
   0.55376679  0.59660468  0.32506930
   0.41965387  0.39230383  0.33204486
   0.41182308  0.39492029  0.67400509
   0.54548845  0.59696859  0.68619775
   0.57453071  0.31649652  0.50489906
   0.69631050  0.70605325  0.46204964
   0.68549737  0.70867982  0.55589439
   0.60842555  0.69978136  0.50203396
   0.66259932  0.70236288  0.50569621
   0.76502679  0.50219898  0.49861190
Direct configuration=   850
   0.38235000  0.57673001  0.50020999
   0.49283491  0.61132344  0.43642835
   0.48829037  0.60904101  0.57418942
   0.38234001  0.46041000  0.43213999
   0.48622951  0.49538285  0.36029648
   0.59792719  0.53366638  0.42630911
   0.48442945  0.49324976  0.64846727
   0.48950169  0.38023435  0.56961424
   0.38209000  0.45960999  0.56687999
   0.59772262  0.53598524  0.58913361
   0.60677024  0.44045507  0.50734315
   0.49124551  0.38340813  0.44043765
   0.44768185  0.62465517  0.50352089
   0.35552001  0.49897000  0.49969000
   0.53146786  0.55946709  0.38419019
   0.44496252  0.42998744  0.38980115
   0.44066543  0.42968200  0.61668117
   0.52782031  0.55909601  0.62636858
   0.54497853  0.38616605  0.50562910
   0.62059762  0.53226541  0.50749937
   0.42950410  0.69595020  0.50501308
   0.28228594  0.49976998  0.49937492
   0.55133114  0.59683535  0.32405286
   0.42070636  0.39114924  0.33195915
   0.41063390  0.39331568  0.67316673
   0.54251957  0.59798944  0.68757833
   0.57903037  0.32072709  0.50537144
   0.68175722  0.72204439  0.46110254
   0.67111714  0.72501146  0.55717643
   0.60043104  0.70303971  0.50190934
   0.65334177  0.71933145  0.50683721
   0.77092097  0.50978617  0.49840712
Direct configuration=   900
   0.38235000  0.57673001  0.50020999
   0.49363567  0.61184216  0.43644874
   0.48791894  0.60936251  0.57378144
   0.38234001  0.46041000  0.43213999
   0.48554293  0.49555882  0.36044236
   0.59791727  0.53639509  0.42482825
   0.48302419  0.49283753  0.64942311
   0.49084932  0.38102260  0.56963297
   0.38209000  0.45960999  0.56687999
   0.59798482  0.53862490  0.59074527
   0.60707165  0.44344976  0.50831681
   0.49221115  0.38469643  0.44129471
   0.44745984  0.62504661  0.50309112
   0.35552001  0.49897000  0.49969000
   0.53070518  0.55973995  0.38363528
   0.44539281  0.42926048  0.39015880
   0.44046681  0.42880817  0.61626998
   0.52693083  0.55932837  0.62747494
   0.54657866  0.38853738  0.50608583
   0.61798347  0.53280648  0.50776575
   0.42884881  0.69613711  0.50343623
   0.28191546  0.49962009  0.49960495
   0.54887118  0.59718472  0.32290310
   0.42218393  0.38936894  0.33314918
   0.40968374  0.39088548  0.67125057
   0.53985572  0.59797964  0.68837056
   0.58353905  0.32467801  0.50548173
   0.67104159  0.74011842  0.46115857
   0.66143110  0.74327889  0.55890686
   0.59594636  0.70994626  0.50156620
   0.64299582  0.73493631  0.50786542
   0.77689561  0.51734190  0.49820965
Direct configuration=   950
   0.38235000  0.57673001  0.50020999
   0.49427393  0.61220431  0.43643609
   0.48749853  0.60947576  0.57319395
   0.38234001  0.46041000  0.43213999
   0.48499735  0.49569877  0.36073981
   0.59792838  0.53944963  0.42401555
   0.48156329  0.49237900  0.64997101
   0.49250108  0.38270011  0.56995309
   0.38209000  0.45960999  0.56687999
   0.59803771  0.54164700  0.59167229
   0.60700875  0.44755142  0.50931132
   0.49372739  0.38663442  0.44202344
   0.44738194  0.62543002  0.50281660
   0.35552001  0.49897000  0.49969000
   0.52990364  0.56020871  0.38311046
   0.44600071  0.42869426  0.39076781
   0.44061940  0.42806645  0.61546987
   0.52587531  0.55965596  0.62852807
   0.54784436  0.39029402  0.50658380
   0.61537369  0.53229487  0.50803649
   0.42739766  0.69639384  0.50201779
   0.28171125  0.49952991  0.49974450
   0.54644442  0.59741792  0.32162047
   0.42349313  0.38650614  0.33472936
   0.40935343  0.38774024  0.66861874
   0.53780214  0.59797683  0.69031784
   0.58709531  0.32792404  0.50521163
   0.66360077  0.76088179  0.46511906
   0.65358153  0.76283514  0.55705467
   0.58688518  0.71839700  0.50274890
   0.63256976  0.74957603  0.50872508
   0.78290813  0.52489270  0.49802593
Direct configuration=  1000
   0.38235000  0.57673001  0.50020999
   0.49448296  0.61252399  0.43653336
   0.48710334  0.60929677  0.57270791
   0.38234001  0.46041000  0.43213999
   0.48454754  0.49566454  0.36117125
   0.59803367  0.54255774  0.42400208
   0.48024913  0.49208653  0.65007304
   0.49467268  0.38498864  0.57031649
   0.38209000  0.45960999  0.56687999
   0.59768443  0.54491069  0.59202141
   0.60626331  0.45177565  0.51026005
   0.49595406  0.38900321  0.44281935
   0.44740530  0.62579417  0.50262164
   0.35552001  0.49897000  0.49969000
   0.52912334  0.56092294  0.38256434
   0.44663166  0.42848298  0.39153775
   0.44097203  0.42760773  0.61447040
   0.52463779  0.56007443  0.62943935
   0.54880892  0.39148233  0.50711211
   0.61300539  0.53132023  0.50826429
   0.42588541  0.69615896  0.50123608
   0.28229163  0.49949176  0.49975077
   0.54411552  0.59729808  0.32042920
   0.42486857  0.38362477  0.33724036
   0.41009611  0.38450715  0.66546073
   0.53576849  0.59751835  0.69217832
   0.58941732  0.33034673  0.50487741
   0.65388006  0.78130556  0.46891634
   0.64285561  0.78154859  0.55652059
   0.58072554  0.73115335  0.50559382
   0.62232969  0.76360753  0.50933571
   0.78895377  0.53244287  0.49784937
Direct configuration=  1050
   0.38235000  0.57673001  0.50020999
   0.49410802  0.61288159  0.43673155
   0.48670896  0.60885170  0.57250679
   0.38234001  0.46041000  0.43213999
   0.48424689  0.49550644  0.36168340
   0.59811578  0.54553818  0.42467434
   0.47922111  0.49211749  0.64976442
   0.49748084  0.38754035  0.57055283
   0.38209000  0.45960999  0.56687999
   0.59678292  0.54827729  0.59191618
   0.60450236  0.45414935  0.51113807
   0.49880861  0.39161893  0.44366868
   0.44744457  0.62609465  0.50248736
   0.35552001  0.49897000  0.49969000
   0.52846834  0.56183336  0.38207064
   0.44718529  0.42871393  0.39243123
   0.44136901  0.42756656  0.61346579
   0.52328840  0.56056747  0.63011572
   0.54963505  0.39225950  0.50765833
   0.61112344  0.53098673  0.50844710
   0.42489035  0.69603996  0.50137698
   0.28189776  0.49943078  0.49963576
   0.54221746  0.59722378  0.31899948
   0.42635344  0.38142752  0.34042430
   0.41171371  0.38157623  0.66257720
   0.53330963  0.59658333  0.69310037
   0.59116422  0.33167592  0.50492852
   0.64007243  0.79828896  0.46687748
   0.62747033  0.79722537  0.55960175
   0.57059227  0.74206496  0.50679354
   0.61316112  0.77809517  0.51025813
   0.79501615  0.53998934  0.49769238
Direct configuration=  1100
   0.38235000  0.57673001  0.50020999
   0.49317801  0.61328191  0.43682355
   0.48615709  0.60828806  0.57256748
   0.38234001  0.46041000  0.43213999
   0.48425298  0.49550916  0.36218924
   0.59796572  0.54830336  0.42579442
   0.47852731  0.49253693  0.64914455
   0.50060845  0.39010778  0.57087879
   0.38209000  0.45960999  0.56687999
   0.59535157  0.55157504  0.59139788
   0.60187257  0.45366332  0.51196338
   0.50182300  0.39439559  0.44420214
   0.44738672  0.62631064  0.50250335
   0.35552001  0.49897000  0.49969000
   0.52801566  0.56284383  0.38173664
   0.44769806  0.42931754  0.39351821
   0.44178631  0.42793682  0.61257427
   0.52190962  0.56108690  0.63044968
   0.55053395  0.39259608  0.50818800
   0.60991448  0.53207586  0.50864249
   0.42477761  0.69647249  0.50242333
   0.28174442  0.49925673  0.49947147
   0.54096104  0.59734732  0.31793575
   0.42752975  0.37973682  0.34292023
   0.41371528  0.37957104  0.66049484
   0.53074968  0.59655087  0.69451601
   0.59242066  0.33209777  0.50562432
   0.62326892  0.81230455  0.46507467
   0.61108063  0.81137873  0.56153005
   0.56506343  0.75693081  0.50616112
   0.60395574  0.79247776  0.51140279
   0.80109945  0.54753637  0.49756960
Direct configuration=  1150
   0.38235000  0.57673001  0.50020999
   0.49183124  0.61370446  0.43655639
   0.48522406  0.60782599  0.57271902
   0.38234001  0.46041000  0.43213999
   0.48471254  0.49601290  0.36259451
   0.59743229  0.55081725  0.42714572
   0.47814454  0.49334215  0.64836061
   0.50333312  0.39253882  0.57180504
   0.38209000  0.45960999  0.56687999
   0.59357680  0.55459999  0.59044299
   0.59941352  0.45234276  0.51273805
   0.50438705  0.39723703  0.44397876
   0.44711815  0.62648269  0.50278701
   0.35552001  0.49897000  0.49969000
   0.52775349  0.56385468  0.38165425
   0.44827399  0.43009447  0.39478748
   0.44233309  0.42857954  0.61183409
   0.52057452  0.56166575  0.63052324
   0.55152259  0.39213647  0.50861051
   0.60943166  0.53405094  0.50896688
   0.42569516  0.69683463  0.50406671
   0.28232338  0.49896787  0.49935415
   0.54066286  0.59788404  0.31784399
   0.42852016  0.37962758  0.34494433
   0.41554668  0.37928119  0.65931164
   0.52840383  0.59698865  0.69493144
   0.59270114  0.33121537  0.50673483
   0.61043455  0.82942836  0.46514078
   0.59904870  0.82854207  0.56252155
   0.55550622  0.76678514  0.50494131
   0.59439987  0.80667646  0.51251267
   0.80719144  0.55508644  0.49747262
Direct configuration=  1200
   0.38235000  0.57673001  0.50020999
   0.49014364  0.61419076  0.43586475
   0.48373681  0.60767044  0.57282596
   0.38234001  0.46041000  0.43213999
   0.48559972  0.49711050  0.36285415
   0.59649964  0.55306626  0.42859322
   0.47798916  0.49445194  0.64758647
   0.50516866  0.39461443  0.57351584
   0.38209000  0.45960999  0.56687999
   0.59170219  0.55721649  0.58908399
   0.59844031  0.45291113  0.51345502
   0.50627813  0.39987467  0.44304782
   0.44659661  0.62663487  0.50332967
   0.35552001  0.49897000  0.49969000
   0.52763176  0.56482194  0.38188483
   0.44899058  0.43099241  0.39607813
   0.44307346  0.42938654  0.61129003
   0.51934567  0.56236533  0.63041831
   0.55233058  0.39053451  0.50883271
   0.60964628  0.53597157  0.50950391
   0.42693516  0.69745250  0.50579038
   0.28189334  0.49864224  0.49934286
   0.54173861  0.59926867  0.31838535
   0.42918329  0.38111638  0.34610136
   0.41643924  0.38063492  0.65945720
   0.52689579  0.59783766  0.69402011
   0.59172790  0.32836771  0.50765644
   0.60083762  0.84847550  0.47013535
   0.58970364  0.84628046  0.56034789
   0.55071189  0.77965638  0.50685526